VARIABLES = X Y
ZONE I=100, J=30, F=POINT
0.0000000000e+00 0.0000000000e+00
1.0101010101e-02 0.0000000000e+00
2.0202020202e-02 0.0000000000e+00
3.0303030303e-02 0.0000000000e+00
4.0404040404e-02 0.0000000000e+00
5.0505050505e-02 0.0000000000e+00
6.0606060606e-02 0.0000000000e+00
7.0707070707e-02 0.0000000000e+00
8.0808080808e-02 0.0000000000e+00
9.0909090909e-02 0.0000000000e+00
1.0101010101e-01 0.0000000000e+00
1.1111111111e-01 0.0000000000e+00
1.2121212121e-01 0.0000000000e+00
1.3131313131e-01 0.0000000000e+00
1.4141414141e-01 0.0000000000e+00
1.5151515152e-01 0.0000000000e+00
1.6161616162e-01 0.0000000000e+00
1.7171717172e-01 0.0000000000e+00
1.8181818182e-01 0.0000000000e+00
1.9191919192e-01 0.0000000000e+00
2.0202020202e-01 0.0000000000e+00
2.1212121212e-01 0.0000000000e+00
2.2222222222e-01 0.0000000000e+00
2.3232323232e-01 0.0000000000e+00
2.4242424242e-01 0.0000000000e+00
2.5252525253e-01 0.0000000000e+00
2.6262626263e-01 0.0000000000e+00
2.7272727273e-01 0.0000000000e+00
2.8282828283e-01 0.0000000000e+00
2.9292929293e-01 0.0000000000e+00
3.0303030303e-01 0.0000000000e+00
3.1313131313e-01 0.0000000000e+00
3.2323232323e-01 0.0000000000e+00
3.3333333333e-01 0.0000000000e+00
3.4343434343e-01 0.0000000000e+00
3.5353535354e-01 0.0000000000e+00
3.6363636364e-01 0.0000000000e+00
3.7373737374e-01 0.0000000000e+00
3.8383838384e-01 0.0000000000e+00
3.9393939394e-01 0.0000000000e+00
4.0404040404e-01 0.0000000000e+00
4.1414141414e-01 0.0000000000e+00
4.2424242424e-01 0.0000000000e+00
4.3434343434e-01 0.0000000000e+00
4.4444444444e-01 0.0000000000e+00
4.5454545455e-01 0.0000000000e+00
4.6464646465e-01 0.0000000000e+00
4.7474747475e-01 0.0000000000e+00
4.8484848485e-01 0.0000000000e+00
4.9494949495e-01 0.0000000000e+00
5.0505050505e-01 0.0000000000e+00
5.1515151515e-01 0.0000000000e+00
5.2525252525e-01 0.0000000000e+00
5.3535353535e-01 0.0000000000e+00
5.4545454545e-01 0.0000000000e+00
5.5555555556e-01 0.0000000000e+00
5.6565656566e-01 0.0000000000e+00
5.7575757576e-01 0.0000000000e+00
5.8585858586e-01 0.0000000000e+00
5.9595959596e-01 0.0000000000e+00
6.0606060606e-01 0.0000000000e+00
6.1616161616e-01 0.0000000000e+00
6.2626262626e-01 0.0000000000e+00
6.3636363636e-01 0.0000000000e+00
6.4646464646e-01 0.0000000000e+00
6.5656565657e-01 0.0000000000e+00
6.6666666667e-01 0.0000000000e+00
6.7676767677e-01 0.0000000000e+00
6.8686868687e-01 0.0000000000e+00
6.9696969697e-01 0.0000000000e+00
7.0707070707e-01 0.0000000000e+00
7.1717171717e-01 0.0000000000e+00
7.2727272727e-01 0.0000000000e+00
7.3737373737e-01 0.0000000000e+00
7.4747474747e-01 0.0000000000e+00
7.5757575758e-01 0.0000000000e+00
7.6767676768e-01 0.0000000000e+00
7.7777777778e-01 0.0000000000e+00
7.8787878788e-01 0.0000000000e+00
7.9797979798e-01 0.0000000000e+00
8.0808080808e-01 0.0000000000e+00
8.1818181818e-01 0.0000000000e+00
8.2828282828e-01 0.0000000000e+00
8.3838383838e-01 0.0000000000e+00
8.4848484848e-01 0.0000000000e+00
8.5858585859e-01 0.0000000000e+00
8.6868686869e-01 0.0000000000e+00
8.7878787879e-01 0.0000000000e+00
8.8888888889e-01 0.0000000000e+00
8.9898989899e-01 0.0000000000e+00
9.0909090909e-01 0.0000000000e+00
9.1919191919e-01 0.0000000000e+00
9.2929292929e-01 0.0000000000e+00
9.3939393939e-01 0.0000000000e+00
9.4949494949e-01 0.0000000000e+00
9.5959595960e-01 0.0000000000e+00
9.6969696970e-01 0.0000000000e+00
9.7979797980e-01 0.0000000000e+00
9.8989898990e-01 0.0000000000e+00
1.0000000000e+00 0.0000000000e+00
0.0000000000e+00 6.8965517241e-03
1.0101010101e-02 6.8965517241e-03
2.0202020202e-02 6.8965517241e-03
3.0303030303e-02 6.8965517241e-03
4.0404040404e-02 6.8965517241e-03
5.0505050505e-02 6.8965517241e-03
6.0606060606e-02 6.8965517241e-03
7.0707070707e-02 6.8965517241e-03
8.0808080808e-02 6.8965517241e-03
9.0909090909e-02 6.8965517241e-03
1.0101010101e-01 6.8965517241e-03
1.1111111111e-01 6.8965517241e-03
1.2121212121e-01 6.8965517241e-03
1.3131313131e-01 6.8965517241e-03
1.4141414141e-01 6.8965517241e-03
1.5151515152e-01 6.8965517241e-03
1.6161616162e-01 6.8965517241e-03
1.7171717172e-01 6.8965517241e-03
1.8181818182e-01 6.8965517241e-03
1.9191919192e-01 6.8965517241e-03
2.0202020202e-01 6.8965517241e-03
2.1212121212e-01 6.8965517241e-03
2.2222222222e-01 6.8965517241e-03
2.3232323232e-01 6.8965517241e-03
2.4242424242e-01 6.8965517241e-03
2.5252525253e-01 6.8965517241e-03
2.6262626263e-01 6.8965517241e-03
2.7272727273e-01 6.8965517241e-03
2.8282828283e-01 6.8965517241e-03
2.9292929293e-01 6.8965517241e-03
3.0303030303e-01 6.8965517241e-03
3.1313131313e-01 6.8965517241e-03
3.2323232323e-01 6.8965517241e-03
3.3333333333e-01 6.8965517241e-03
3.4343434343e-01 6.8965517241e-03
3.5353535354e-01 6.8965517241e-03
3.6363636364e-01 6.8965517241e-03
3.7373737374e-01 6.8965517241e-03
3.8383838384e-01 6.8965517241e-03
3.9393939394e-01 6.8965517241e-03
4.0404040404e-01 6.8965517241e-03
4.1414141414e-01 6.8965517241e-03
4.2424242424e-01 6.8965517241e-03
4.3434343434e-01 6.8965517241e-03
4.4444444444e-01 6.8965517241e-03
4.5454545455e-01 6.8965517241e-03
4.6464646465e-01 6.8965517241e-03
4.7474747475e-01 6.8965517241e-03
4.8484848485e-01 6.8965517241e-03
4.9494949495e-01 6.8965517241e-03
5.0505050505e-01 6.8965517241e-03
5.1515151515e-01 6.8965517241e-03
5.2525252525e-01 6.8965517241e-03
5.3535353535e-01 6.8965517241e-03
5.4545454545e-01 6.8965517241e-03
5.5555555556e-01 6.8965517241e-03
5.6565656566e-01 6.8965517241e-03
5.7575757576e-01 6.8965517241e-03
5.8585858586e-01 6.8965517241e-03
5.9595959596e-01 6.8965517241e-03
6.0606060606e-01 6.8965517241e-03
6.1616161616e-01 6.8965517241e-03
6.2626262626e-01 6.8965517241e-03
6.3636363636e-01 6.8965517241e-03
6.4646464646e-01 6.8965517241e-03
6.5656565657e-01 6.8965517241e-03
6.6666666667e-01 6.8965517241e-03
6.7676767677e-01 6.8965517241e-03
6.8686868687e-01 6.8965517241e-03
6.9696969697e-01 6.8965517241e-03
7.0707070707e-01 6.8965517241e-03
7.1717171717e-01 6.8965517241e-03
7.2727272727e-01 6.8965517241e-03
7.3737373737e-01 6.8965517241e-03
7.4747474747e-01 6.8965517241e-03
7.5757575758e-01 6.8965517241e-03
7.6767676768e-01 6.8965517241e-03
7.7777777778e-01 6.8965517241e-03
7.8787878788e-01 6.8965517241e-03
7.9797979798e-01 6.8965517241e-03
8.0808080808e-01 6.8965517241e-03
8.1818181818e-01 6.8965517241e-03
8.2828282828e-01 6.8965517241e-03
8.3838383838e-01 6.8965517241e-03
8.4848484848e-01 6.8965517241e-03
8.5858585859e-01 6.8965517241e-03
8.6868686869e-01 6.8965517241e-03
8.7878787879e-01 6.8965517241e-03
8.8888888889e-01 6.8965517241e-03
8.9898989899e-01 6.8965517241e-03
9.0909090909e-01 6.8965517241e-03
9.1919191919e-01 6.8965517241e-03
9.2929292929e-01 6.8965517241e-03
9.3939393939e-01 6.8965517241e-03
9.4949494949e-01 6.8965517241e-03
9.5959595960e-01 6.8965517241e-03
9.6969696970e-01 6.8965517241e-03
9.7979797980e-01 6.8965517241e-03
9.8989898990e-01 6.8965517241e-03
1.0000000000e+00 6.8965517241e-03
0.0000000000e+00 1.3793103448e-02
1.0101010101e-02 1.3793103448e-02
2.0202020202e-02 1.3793103448e-02
3.0303030303e-02 1.3793103448e-02
4.0404040404e-02 1.3793103448e-02
5.0505050505e-02 1.3793103448e-02
6.0606060606e-02 1.3793103448e-02
7.0707070707e-02 1.3793103448e-02
8.0808080808e-02 1.3793103448e-02
9.0909090909e-02 1.3793103448e-02
1.0101010101e-01 1.3793103448e-02
1.1111111111e-01 1.3793103448e-02
1.2121212121e-01 1.3793103448e-02
1.3131313131e-01 1.3793103448e-02
1.4141414141e-01 1.3793103448e-02
1.5151515152e-01 1.3793103448e-02
1.6161616162e-01 1.3793103448e-02
1.7171717172e-01 1.3793103448e-02
1.8181818182e-01 1.3793103448e-02
1.9191919192e-01 1.3793103448e-02
2.0202020202e-01 1.3793103448e-02
2.1212121212e-01 1.3793103448e-02
2.2222222222e-01 1.3793103448e-02
2.3232323232e-01 1.3793103448e-02
2.4242424242e-01 1.3793103448e-02
2.5252525253e-01 1.3793103448e-02
2.6262626263e-01 1.3793103448e-02
2.7272727273e-01 1.3793103448e-02
2.8282828283e-01 1.3793103448e-02
2.9292929293e-01 1.3793103448e-02
3.0303030303e-01 1.3793103448e-02
3.1313131313e-01 1.3793103448e-02
3.2323232323e-01 1.3793103448e-02
3.3333333333e-01 1.3793103448e-02
3.4343434343e-01 1.3793103448e-02
3.5353535354e-01 1.3793103448e-02
3.6363636364e-01 1.3793103448e-02
3.7373737374e-01 1.3793103448e-02
3.8383838384e-01 1.3793103448e-02
3.9393939394e-01 1.3793103448e-02
4.0404040404e-01 1.3793103448e-02
4.1414141414e-01 1.3793103448e-02
4.2424242424e-01 1.3793103448e-02
4.3434343434e-01 1.3793103448e-02
4.4444444444e-01 1.3793103448e-02
4.5454545455e-01 1.3793103448e-02
4.6464646465e-01 1.3793103448e-02
4.7474747475e-01 1.3793103448e-02
4.8484848485e-01 1.3793103448e-02
4.9494949495e-01 1.3793103448e-02
5.0505050505e-01 1.3793103448e-02
5.1515151515e-01 1.3793103448e-02
5.2525252525e-01 1.3793103448e-02
5.3535353535e-01 1.3793103448e-02
5.4545454545e-01 1.3793103448e-02
5.5555555556e-01 1.3793103448e-02
5.6565656566e-01 1.3793103448e-02
5.7575757576e-01 1.3793103448e-02
5.8585858586e-01 1.3793103448e-02
5.9595959596e-01 1.3793103448e-02
6.0606060606e-01 1.3793103448e-02
6.1616161616e-01 1.3793103448e-02
6.2626262626e-01 1.3793103448e-02
6.3636363636e-01 1.3793103448e-02
6.4646464646e-01 1.3793103448e-02
6.5656565657e-01 1.3793103448e-02
6.6666666667e-01 1.3793103448e-02
6.7676767677e-01 1.3793103448e-02
6.8686868687e-01 1.3793103448e-02
6.9696969697e-01 1.3793103448e-02
7.0707070707e-01 1.3793103448e-02
7.1717171717e-01 1.3793103448e-02
7.2727272727e-01 1.3793103448e-02
7.3737373737e-01 1.3793103448e-02
7.4747474747e-01 1.3793103448e-02
7.5757575758e-01 1.3793103448e-02
7.6767676768e-01 1.3793103448e-02
7.7777777778e-01 1.3793103448e-02
7.8787878788e-01 1.3793103448e-02
7.9797979798e-01 1.3793103448e-02
8.0808080808e-01 1.3793103448e-02
8.1818181818e-01 1.3793103448e-02
8.2828282828e-01 1.3793103448e-02
8.3838383838e-01 1.3793103448e-02
8.4848484848e-01 1.3793103448e-02
8.5858585859e-01 1.3793103448e-02
8.6868686869e-01 1.3793103448e-02
8.7878787879e-01 1.3793103448e-02
8.8888888889e-01 1.3793103448e-02
8.9898989899e-01 1.3793103448e-02
9.0909090909e-01 1.3793103448e-02
9.1919191919e-01 1.3793103448e-02
9.2929292929e-01 1.3793103448e-02
9.3939393939e-01 1.3793103448e-02
9.4949494949e-01 1.3793103448e-02
9.5959595960e-01 1.3793103448e-02
9.6969696970e-01 1.3793103448e-02
9.7979797980e-01 1.3793103448e-02
9.8989898990e-01 1.3793103448e-02
1.0000000000e+00 1.3793103448e-02
0.0000000000e+00 2.0689655172e-02
1.0101010101e-02 2.0689655172e-02
2.0202020202e-02 2.0689655172e-02
3.0303030303e-02 2.0689655172e-02
4.0404040404e-02 2.0689655172e-02
5.0505050505e-02 2.0689655172e-02
6.0606060606e-02 2.0689655172e-02
7.0707070707e-02 2.0689655172e-02
8.0808080808e-02 2.0689655172e-02
9.0909090909e-02 2.0689655172e-02
1.0101010101e-01 2.0689655172e-02
1.1111111111e-01 2.0689655172e-02
1.2121212121e-01 2.0689655172e-02
1.3131313131e-01 2.0689655172e-02
1.4141414141e-01 2.0689655172e-02
1.5151515152e-01 2.0689655172e-02
1.6161616162e-01 2.0689655172e-02
1.7171717172e-01 2.0689655172e-02
1.8181818182e-01 2.0689655172e-02
1.9191919192e-01 2.0689655172e-02
2.0202020202e-01 2.0689655172e-02
2.1212121212e-01 2.0689655172e-02
2.2222222222e-01 2.0689655172e-02
2.3232323232e-01 2.0689655172e-02
2.4242424242e-01 2.0689655172e-02
2.5252525253e-01 2.0689655172e-02
2.6262626263e-01 2.0689655172e-02
2.7272727273e-01 2.0689655172e-02
2.8282828283e-01 2.0689655172e-02
2.9292929293e-01 2.0689655172e-02
3.0303030303e-01 2.0689655172e-02
3.1313131313e-01 2.0689655172e-02
3.2323232323e-01 2.0689655172e-02
3.3333333333e-01 2.0689655172e-02
3.4343434343e-01 2.0689655172e-02
3.5353535354e-01 2.0689655172e-02
3.6363636364e-01 2.0689655172e-02
3.7373737374e-01 2.0689655172e-02
3.8383838384e-01 2.0689655172e-02
3.9393939394e-01 2.0689655172e-02
4.0404040404e-01 2.0689655172e-02
4.1414141414e-01 2.0689655172e-02
4.2424242424e-01 2.0689655172e-02
4.3434343434e-01 2.0689655172e-02
4.4444444444e-01 2.0689655172e-02
4.5454545455e-01 2.0689655172e-02
4.6464646465e-01 2.0689655172e-02
4.7474747475e-01 2.0689655172e-02
4.8484848485e-01 2.0689655172e-02
4.9494949495e-01 2.0689655172e-02
5.0505050505e-01 2.0689655172e-02
5.1515151515e-01 2.0689655172e-02
5.2525252525e-01 2.0689655172e-02
5.3535353535e-01 2.0689655172e-02
5.4545454545e-01 2.0689655172e-02
5.5555555556e-01 2.0689655172e-02
5.6565656566e-01 2.0689655172e-02
5.7575757576e-01 2.0689655172e-02
5.8585858586e-01 2.0689655172e-02
5.9595959596e-01 2.0689655172e-02
6.0606060606e-01 2.0689655172e-02
6.1616161616e-01 2.0689655172e-02
6.2626262626e-01 2.0689655172e-02
6.3636363636e-01 2.0689655172e-02
6.4646464646e-01 2.0689655172e-02
6.5656565657e-01 2.0689655172e-02
6.6666666667e-01 2.0689655172e-02
6.7676767677e-01 2.0689655172e-02
6.8686868687e-01 2.0689655172e-02
6.9696969697e-01 2.0689655172e-02
7.0707070707e-01 2.0689655172e-02
7.1717171717e-01 2.0689655172e-02
7.2727272727e-01 2.0689655172e-02
7.3737373737e-01 2.0689655172e-02
7.4747474747e-01 2.0689655172e-02
7.5757575758e-01 2.0689655172e-02
7.6767676768e-01 2.0689655172e-02
7.7777777778e-01 2.0689655172e-02
7.8787878788e-01 2.0689655172e-02
7.9797979798e-01 2.0689655172e-02
8.0808080808e-01 2.0689655172e-02
8.1818181818e-01 2.0689655172e-02
8.2828282828e-01 2.0689655172e-02
8.3838383838e-01 2.0689655172e-02
8.4848484848e-01 2.0689655172e-02
8.5858585859e-01 2.0689655172e-02
8.6868686869e-01 2.0689655172e-02
8.7878787879e-01 2.0689655172e-02
8.8888888889e-01 2.0689655172e-02
8.9898989899e-01 2.0689655172e-02
9.0909090909e-01 2.0689655172e-02
9.1919191919e-01 2.0689655172e-02
9.2929292929e-01 2.0689655172e-02
9.3939393939e-01 2.0689655172e-02
9.4949494949e-01 2.0689655172e-02
9.5959595960e-01 2.0689655172e-02
9.6969696970e-01 2.0689655172e-02
9.7979797980e-01 2.0689655172e-02
9.8989898990e-01 2.0689655172e-02
1.0000000000e+00 2.0689655172e-02
0.0000000000e+00 2.7586206897e-02
1.0101010101e-02 2.7586206897e-02
2.0202020202e-02 2.7586206897e-02
3.0303030303e-02 2.7586206897e-02
4.0404040404e-02 2.7586206897e-02
5.0505050505e-02 2.7586206897e-02
6.0606060606e-02 2.7586206897e-02
7.0707070707e-02 2.7586206897e-02
8.0808080808e-02 2.7586206897e-02
9.0909090909e-02 2.7586206897e-02
1.0101010101e-01 2.7586206897e-02
1.1111111111e-01 2.7586206897e-02
1.2121212121e-01 2.7586206897e-02
1.3131313131e-01 2.7586206897e-02
1.4141414141e-01 2.7586206897e-02
1.5151515152e-01 2.7586206897e-02
1.6161616162e-01 2.7586206897e-02
1.7171717172e-01 2.7586206897e-02
1.8181818182e-01 2.7586206897e-02
1.9191919192e-01 2.7586206897e-02
2.0202020202e-01 2.7586206897e-02
2.1212121212e-01 2.7586206897e-02
2.2222222222e-01 2.7586206897e-02
2.3232323232e-01 2.7586206897e-02
2.4242424242e-01 2.7586206897e-02
2.5252525253e-01 2.7586206897e-02
2.6262626263e-01 2.7586206897e-02
2.7272727273e-01 2.7586206897e-02
2.8282828283e-01 2.7586206897e-02
2.9292929293e-01 2.7586206897e-02
3.0303030303e-01 2.7586206897e-02
3.1313131313e-01 2.7586206897e-02
3.2323232323e-01 2.7586206897e-02
3.3333333333e-01 2.7586206897e-02
3.4343434343e-01 2.7586206897e-02
3.5353535354e-01 2.7586206897e-02
3.6363636364e-01 2.7586206897e-02
3.7373737374e-01 2.7586206897e-02
3.8383838384e-01 2.7586206897e-02
3.9393939394e-01 2.7586206897e-02
4.0404040404e-01 2.7586206897e-02
4.1414141414e-01 2.7586206897e-02
4.2424242424e-01 2.7586206897e-02
4.3434343434e-01 2.7586206897e-02
4.4444444444e-01 2.7586206897e-02
4.5454545455e-01 2.7586206897e-02
4.6464646465e-01 2.7586206897e-02
4.7474747475e-01 2.7586206897e-02
4.8484848485e-01 2.7586206897e-02
4.9494949495e-01 2.7586206897e-02
5.0505050505e-01 2.7586206897e-02
5.1515151515e-01 2.7586206897e-02
5.2525252525e-01 2.7586206897e-02
5.3535353535e-01 2.7586206897e-02
5.4545454545e-01 2.7586206897e-02
5.5555555556e-01 2.7586206897e-02
5.6565656566e-01 2.7586206897e-02
5.7575757576e-01 2.7586206897e-02
5.8585858586e-01 2.7586206897e-02
5.9595959596e-01 2.7586206897e-02
6.0606060606e-01 2.7586206897e-02
6.1616161616e-01 2.7586206897e-02
6.2626262626e-01 2.7586206897e-02
6.3636363636e-01 2.7586206897e-02
6.4646464646e-01 2.7586206897e-02
6.5656565657e-01 2.7586206897e-02
6.6666666667e-01 2.7586206897e-02
6.7676767677e-01 2.7586206897e-02
6.8686868687e-01 2.7586206897e-02
6.9696969697e-01 2.7586206897e-02
7.0707070707e-01 2.7586206897e-02
7.1717171717e-01 2.7586206897e-02
7.2727272727e-01 2.7586206897e-02
7.3737373737e-01 2.7586206897e-02
7.4747474747e-01 2.7586206897e-02
7.5757575758e-01 2.7586206897e-02
7.6767676768e-01 2.7586206897e-02
7.7777777778e-01 2.7586206897e-02
7.8787878788e-01 2.7586206897e-02
7.9797979798e-01 2.7586206897e-02
8.0808080808e-01 2.7586206897e-02
8.1818181818e-01 2.7586206897e-02
8.2828282828e-01 2.7586206897e-02
8.3838383838e-01 2.7586206897e-02
8.4848484848e-01 2.7586206897e-02
8.5858585859e-01 2.7586206897e-02
8.6868686869e-01 2.7586206897e-02
8.7878787879e-01 2.7586206897e-02
8.8888888889e-01 2.7586206897e-02
8.9898989899e-01 2.7586206897e-02
9.0909090909e-01 2.7586206897e-02
9.1919191919e-01 2.7586206897e-02
9.2929292929e-01 2.7586206897e-02
9.3939393939e-01 2.7586206897e-02
9.4949494949e-01 2.7586206897e-02
9.5959595960e-01 2.7586206897e-02
9.6969696970e-01 2.7586206897e-02
9.7979797980e-01 2.7586206897e-02
9.8989898990e-01 2.7586206897e-02
1.0000000000e+00 2.7586206897e-02
0.0000000000e+00 3.4482758621e-02
1.0101010101e-02 3.4482758621e-02
2.0202020202e-02 3.4482758621e-02
3.0303030303e-02 3.4482758621e-02
4.0404040404e-02 3.4482758621e-02
5.0505050505e-02 3.4482758621e-02
6.0606060606e-02 3.4482758621e-02
7.0707070707e-02 3.4482758621e-02
8.0808080808e-02 3.4482758621e-02
9.0909090909e-02 3.4482758621e-02
1.0101010101e-01 3.4482758621e-02
1.1111111111e-01 3.4482758621e-02
1.2121212121e-01 3.4482758621e-02
1.3131313131e-01 3.4482758621e-02
1.4141414141e-01 3.4482758621e-02
1.5151515152e-01 3.4482758621e-02
1.6161616162e-01 3.4482758621e-02
1.7171717172e-01 3.4482758621e-02
1.8181818182e-01 3.4482758621e-02
1.9191919192e-01 3.4482758621e-02
2.0202020202e-01 3.4482758621e-02
2.1212121212e-01 3.4482758621e-02
2.2222222222e-01 3.4482758621e-02
2.3232323232e-01 3.4482758621e-02
2.4242424242e-01 3.4482758621e-02
2.5252525253e-01 3.4482758621e-02
2.6262626263e-01 3.4482758621e-02
2.7272727273e-01 3.4482758621e-02
2.8282828283e-01 3.4482758621e-02
2.9292929293e-01 3.4482758621e-02
3.0303030303e-01 3.4482758621e-02
3.1313131313e-01 3.4482758621e-02
3.2323232323e-01 3.4482758621e-02
3.3333333333e-01 3.4482758621e-02
3.4343434343e-01 3.4482758621e-02
3.5353535354e-01 3.4482758621e-02
3.6363636364e-01 3.4482758621e-02
3.7373737374e-01 3.4482758621e-02
3.8383838384e-01 3.4482758621e-02
3.9393939394e-01 3.4482758621e-02
4.0404040404e-01 3.4482758621e-02
4.1414141414e-01 3.4482758621e-02
4.2424242424e-01 3.4482758621e-02
4.3434343434e-01 3.4482758621e-02
4.4444444444e-01 3.4482758621e-02
4.5454545455e-01 3.4482758621e-02
4.6464646465e-01 3.4482758621e-02
4.7474747475e-01 3.4482758621e-02
4.8484848485e-01 3.4482758621e-02
4.9494949495e-01 3.4482758621e-02
5.0505050505e-01 3.4482758621e-02
5.1515151515e-01 3.4482758621e-02
5.2525252525e-01 3.4482758621e-02
5.3535353535e-01 3.4482758621e-02
5.4545454545e-01 3.4482758621e-02
5.5555555556e-01 3.4482758621e-02
5.6565656566e-01 3.4482758621e-02
5.7575757576e-01 3.4482758621e-02
5.8585858586e-01 3.4482758621e-02
5.9595959596e-01 3.4482758621e-02
6.0606060606e-01 3.4482758621e-02
6.1616161616e-01 3.4482758621e-02
6.2626262626e-01 3.4482758621e-02
6.3636363636e-01 3.4482758621e-02
6.4646464646e-01 3.4482758621e-02
6.5656565657e-01 3.4482758621e-02
6.6666666667e-01 3.4482758621e-02
6.7676767677e-01 3.4482758621e-02
6.8686868687e-01 3.4482758621e-02
6.9696969697e-01 3.4482758621e-02
7.0707070707e-01 3.4482758621e-02
7.1717171717e-01 3.4482758621e-02
7.2727272727e-01 3.4482758621e-02
7.3737373737e-01 3.4482758621e-02
7.4747474747e-01 3.4482758621e-02
7.5757575758e-01 3.4482758621e-02
7.6767676768e-01 3.4482758621e-02
7.7777777778e-01 3.4482758621e-02
7.8787878788e-01 3.4482758621e-02
7.9797979798e-01 3.4482758621e-02
8.0808080808e-01 3.4482758621e-02
8.1818181818e-01 3.4482758621e-02
8.2828282828e-01 3.4482758621e-02
8.3838383838e-01 3.4482758621e-02
8.4848484848e-01 3.4482758621e-02
8.5858585859e-01 3.4482758621e-02
8.6868686869e-01 3.4482758621e-02
8.7878787879e-01 3.4482758621e-02
8.8888888889e-01 3.4482758621e-02
8.9898989899e-01 3.4482758621e-02
9.0909090909e-01 3.4482758621e-02
9.1919191919e-01 3.4482758621e-02
9.2929292929e-01 3.4482758621e-02
9.3939393939e-01 3.4482758621e-02
9.4949494949e-01 3.4482758621e-02
9.5959595960e-01 3.4482758621e-02
9.6969696970e-01 3.4482758621e-02
9.7979797980e-01 3.4482758621e-02
9.8989898990e-01 3.4482758621e-02
1.0000000000e+00 3.4482758621e-02
0.0000000000e+00 4.1379310345e-02
1.0101010101e-02 4.1379310345e-02
2.0202020202e-02 4.1379310345e-02
3.0303030303e-02 4.1379310345e-02
4.0404040404e-02 4.1379310345e-02
5.0505050505e-02 4.1379310345e-02
6.0606060606e-02 4.1379310345e-02
7.0707070707e-02 4.1379310345e-02
8.0808080808e-02 4.1379310345e-02
9.0909090909e-02 4.1379310345e-02
1.0101010101e-01 4.1379310345e-02
1.1111111111e-01 4.1379310345e-02
1.2121212121e-01 4.1379310345e-02
1.3131313131e-01 4.1379310345e-02
1.4141414141e-01 4.1379310345e-02
1.5151515152e-01 4.1379310345e-02
1.6161616162e-01 4.1379310345e-02
1.7171717172e-01 4.1379310345e-02
1.8181818182e-01 4.1379310345e-02
1.9191919192e-01 4.1379310345e-02
2.0202020202e-01 4.1379310345e-02
2.1212121212e-01 4.1379310345e-02
2.2222222222e-01 4.1379310345e-02
2.3232323232e-01 4.1379310345e-02
2.4242424242e-01 4.1379310345e-02
2.5252525253e-01 4.1379310345e-02
2.6262626263e-01 4.1379310345e-02
2.7272727273e-01 4.1379310345e-02
2.8282828283e-01 4.1379310345e-02
2.9292929293e-01 4.1379310345e-02
3.0303030303e-01 4.1379310345e-02
3.1313131313e-01 4.1379310345e-02
3.2323232323e-01 4.1379310345e-02
3.3333333333e-01 4.1379310345e-02
3.4343434343e-01 4.1379310345e-02
3.5353535354e-01 4.1379310345e-02
3.6363636364e-01 4.1379310345e-02
3.7373737374e-01 4.1379310345e-02
3.8383838384e-01 4.1379310345e-02
3.9393939394e-01 4.1379310345e-02
4.0404040404e-01 4.1379310345e-02
4.1414141414e-01 4.1379310345e-02
4.2424242424e-01 4.1379310345e-02
4.3434343434e-01 4.1379310345e-02
4.4444444444e-01 4.1379310345e-02
4.5454545455e-01 4.1379310345e-02
4.6464646465e-01 4.1379310345e-02
4.7474747475e-01 4.1379310345e-02
4.8484848485e-01 4.1379310345e-02
4.9494949495e-01 4.1379310345e-02
5.0505050505e-01 4.1379310345e-02
5.1515151515e-01 4.1379310345e-02
5.2525252525e-01 4.1379310345e-02
5.3535353535e-01 4.1379310345e-02
5.4545454545e-01 4.1379310345e-02
5.5555555556e-01 4.1379310345e-02
5.6565656566e-01 4.1379310345e-02
5.7575757576e-01 4.1379310345e-02
5.8585858586e-01 4.1379310345e-02
5.9595959596e-01 4.1379310345e-02
6.0606060606e-01 4.1379310345e-02
6.1616161616e-01 4.1379310345e-02
6.2626262626e-01 4.1379310345e-02
6.3636363636e-01 4.1379310345e-02
6.4646464646e-01 4.1379310345e-02
6.5656565657e-01 4.1379310345e-02
6.6666666667e-01 4.1379310345e-02
6.7676767677e-01 4.1379310345e-02
6.8686868687e-01 4.1379310345e-02
6.9696969697e-01 4.1379310345e-02
7.0707070707e-01 4.1379310345e-02
7.1717171717e-01 4.1379310345e-02
7.2727272727e-01 4.1379310345e-02
7.3737373737e-01 4.1379310345e-02
7.4747474747e-01 4.1379310345e-02
7.5757575758e-01 4.1379310345e-02
7.6767676768e-01 4.1379310345e-02
7.7777777778e-01 4.1379310345e-02
7.8787878788e-01 4.1379310345e-02
7.9797979798e-01 4.1379310345e-02
8.0808080808e-01 4.1379310345e-02
8.1818181818e-01 4.1379310345e-02
8.2828282828e-01 4.1379310345e-02
8.3838383838e-01 4.1379310345e-02
8.4848484848e-01 4.1379310345e-02
8.5858585859e-01 4.1379310345e-02
8.6868686869e-01 4.1379310345e-02
8.7878787879e-01 4.1379310345e-02
8.8888888889e-01 4.1379310345e-02
8.9898989899e-01 4.1379310345e-02
9.0909090909e-01 4.1379310345e-02
9.1919191919e-01 4.1379310345e-02
9.2929292929e-01 4.1379310345e-02
9.3939393939e-01 4.1379310345e-02
9.4949494949e-01 4.1379310345e-02
9.5959595960e-01 4.1379310345e-02
9.6969696970e-01 4.1379310345e-02
9.7979797980e-01 4.1379310345e-02
9.8989898990e-01 4.1379310345e-02
1.0000000000e+00 4.1379310345e-02
0.0000000000e+00 4.8275862069e-02
1.0101010101e-02 4.8275862069e-02
2.0202020202e-02 4.8275862069e-02
3.0303030303e-02 4.8275862069e-02
4.0404040404e-02 4.8275862069e-02
5.0505050505e-02 4.8275862069e-02
6.0606060606e-02 4.8275862069e-02
7.0707070707e-02 4.8275862069e-02
8.0808080808e-02 4.8275862069e-02
9.0909090909e-02 4.8275862069e-02
1.0101010101e-01 4.8275862069e-02
1.1111111111e-01 4.8275862069e-02
1.2121212121e-01 4.8275862069e-02
1.3131313131e-01 4.8275862069e-02
1.4141414141e-01 4.8275862069e-02
1.5151515152e-01 4.8275862069e-02
1.6161616162e-01 4.8275862069e-02
1.7171717172e-01 4.8275862069e-02
1.8181818182e-01 4.8275862069e-02
1.9191919192e-01 4.8275862069e-02
2.0202020202e-01 4.8275862069e-02
2.1212121212e-01 4.8275862069e-02
2.2222222222e-01 4.8275862069e-02
2.3232323232e-01 4.8275862069e-02
2.4242424242e-01 4.8275862069e-02
2.5252525253e-01 4.8275862069e-02
2.6262626263e-01 4.8275862069e-02
2.7272727273e-01 4.8275862069e-02
2.8282828283e-01 4.8275862069e-02
2.9292929293e-01 4.8275862069e-02
3.0303030303e-01 4.8275862069e-02
3.1313131313e-01 4.8275862069e-02
3.2323232323e-01 4.8275862069e-02
3.3333333333e-01 4.8275862069e-02
3.4343434343e-01 4.8275862069e-02
3.5353535354e-01 4.8275862069e-02
3.6363636364e-01 4.8275862069e-02
3.7373737374e-01 4.8275862069e-02
3.8383838384e-01 4.8275862069e-02
3.9393939394e-01 4.8275862069e-02
4.0404040404e-01 4.8275862069e-02
4.1414141414e-01 4.8275862069e-02
4.2424242424e-01 4.8275862069e-02
4.3434343434e-01 4.8275862069e-02
4.4444444444e-01 4.8275862069e-02
4.5454545455e-01 4.8275862069e-02
4.6464646465e-01 4.8275862069e-02
4.7474747475e-01 4.8275862069e-02
4.8484848485e-01 4.8275862069e-02
4.9494949495e-01 4.8275862069e-02
5.0505050505e-01 4.8275862069e-02
5.1515151515e-01 4.8275862069e-02
5.2525252525e-01 4.8275862069e-02
5.3535353535e-01 4.8275862069e-02
5.4545454545e-01 4.8275862069e-02
5.5555555556e-01 4.8275862069e-02
5.6565656566e-01 4.8275862069e-02
5.7575757576e-01 4.8275862069e-02
5.8585858586e-01 4.8275862069e-02
5.9595959596e-01 4.8275862069e-02
6.0606060606e-01 4.8275862069e-02
6.1616161616e-01 4.8275862069e-02
6.2626262626e-01 4.8275862069e-02
6.3636363636e-01 4.8275862069e-02
6.4646464646e-01 4.8275862069e-02
6.5656565657e-01 4.8275862069e-02
6.6666666667e-01 4.8275862069e-02
6.7676767677e-01 4.8275862069e-02
6.8686868687e-01 4.8275862069e-02
6.9696969697e-01 4.8275862069e-02
7.0707070707e-01 4.8275862069e-02
7.1717171717e-01 4.8275862069e-02
7.2727272727e-01 4.8275862069e-02
7.3737373737e-01 4.8275862069e-02
7.4747474747e-01 4.8275862069e-02
7.5757575758e-01 4.8275862069e-02
7.6767676768e-01 4.8275862069e-02
7.7777777778e-01 4.8275862069e-02
7.8787878788e-01 4.8275862069e-02
7.9797979798e-01 4.8275862069e-02
8.0808080808e-01 4.8275862069e-02
8.1818181818e-01 4.8275862069e-02
8.2828282828e-01 4.8275862069e-02
8.3838383838e-01 4.8275862069e-02
8.4848484848e-01 4.8275862069e-02
8.5858585859e-01 4.8275862069e-02
8.6868686869e-01 4.8275862069e-02
8.7878787879e-01 4.8275862069e-02
8.8888888889e-01 4.8275862069e-02
8.9898989899e-01 4.8275862069e-02
9.0909090909e-01 4.8275862069e-02
9.1919191919e-01 4.8275862069e-02
9.2929292929e-01 4.8275862069e-02
9.3939393939e-01 4.8275862069e-02
9.4949494949e-01 4.8275862069e-02
9.5959595960e-01 4.8275862069e-02
9.6969696970e-01 4.8275862069e-02
9.7979797980e-01 4.8275862069e-02
9.8989898990e-01 4.8275862069e-02
1.0000000000e+00 4.8275862069e-02
0.0000000000e+00 5.5172413793e-02
1.0101010101e-02 5.5172413793e-02
2.0202020202e-02 5.5172413793e-02
3.0303030303e-02 5.5172413793e-02
4.0404040404e-02 5.5172413793e-02
5.0505050505e-02 5.5172413793e-02
6.0606060606e-02 5.5172413793e-02
7.0707070707e-02 5.5172413793e-02
8.0808080808e-02 5.5172413793e-02
9.0909090909e-02 5.5172413793e-02
1.0101010101e-01 5.5172413793e-02
1.1111111111e-01 5.5172413793e-02
1.2121212121e-01 5.5172413793e-02
1.3131313131e-01 5.5172413793e-02
1.4141414141e-01 5.5172413793e-02
1.5151515152e-01 5.5172413793e-02
1.6161616162e-01 5.5172413793e-02
1.7171717172e-01 5.5172413793e-02
1.8181818182e-01 5.5172413793e-02
1.9191919192e-01 5.5172413793e-02
2.0202020202e-01 5.5172413793e-02
2.1212121212e-01 5.5172413793e-02
2.2222222222e-01 5.5172413793e-02
2.3232323232e-01 5.5172413793e-02
2.4242424242e-01 5.5172413793e-02
2.5252525253e-01 5.5172413793e-02
2.6262626263e-01 5.5172413793e-02
2.7272727273e-01 5.5172413793e-02
2.8282828283e-01 5.5172413793e-02
2.9292929293e-01 5.5172413793e-02
3.0303030303e-01 5.5172413793e-02
3.1313131313e-01 5.5172413793e-02
3.2323232323e-01 5.5172413793e-02
3.3333333333e-01 5.5172413793e-02
3.4343434343e-01 5.5172413793e-02
3.5353535354e-01 5.5172413793e-02
3.6363636364e-01 5.5172413793e-02
3.7373737374e-01 5.5172413793e-02
3.8383838384e-01 5.5172413793e-02
3.9393939394e-01 5.5172413793e-02
4.0404040404e-01 5.5172413793e-02
4.1414141414e-01 5.5172413793e-02
4.2424242424e-01 5.5172413793e-02
4.3434343434e-01 5.5172413793e-02
4.4444444444e-01 5.5172413793e-02
4.5454545455e-01 5.5172413793e-02
4.6464646465e-01 5.5172413793e-02
4.7474747475e-01 5.5172413793e-02
4.8484848485e-01 5.5172413793e-02
4.9494949495e-01 5.5172413793e-02
5.0505050505e-01 5.5172413793e-02
5.1515151515e-01 5.5172413793e-02
5.2525252525e-01 5.5172413793e-02
5.3535353535e-01 5.5172413793e-02
5.4545454545e-01 5.5172413793e-02
5.5555555556e-01 5.5172413793e-02
5.6565656566e-01 5.5172413793e-02
5.7575757576e-01 5.5172413793e-02
5.8585858586e-01 5.5172413793e-02
5.9595959596e-01 5.5172413793e-02
6.0606060606e-01 5.5172413793e-02
6.1616161616e-01 5.5172413793e-02
6.2626262626e-01 5.5172413793e-02
6.3636363636e-01 5.5172413793e-02
6.4646464646e-01 5.5172413793e-02
6.5656565657e-01 5.5172413793e-02
6.6666666667e-01 5.5172413793e-02
6.7676767677e-01 5.5172413793e-02
6.8686868687e-01 5.5172413793e-02
6.9696969697e-01 5.5172413793e-02
7.0707070707e-01 5.5172413793e-02
7.1717171717e-01 5.5172413793e-02
7.2727272727e-01 5.5172413793e-02
7.3737373737e-01 5.5172413793e-02
7.4747474747e-01 5.5172413793e-02
7.5757575758e-01 5.5172413793e-02
7.6767676768e-01 5.5172413793e-02
7.7777777778e-01 5.5172413793e-02
7.8787878788e-01 5.5172413793e-02
7.9797979798e-01 5.5172413793e-02
8.0808080808e-01 5.5172413793e-02