VARIABLES = X Y
ZONE I = 50, J = 50, F = POINT
0	0
0.102041	0
0.204082	0
0.306122	0
0.408163	0
0.510204	0
0.612245	0
0.714286	0
0.816327	0
0.918367	0
1.02041	0
1.12245	0
1.22449	0
1.32653	0
1.42857	0
1.53061	0
1.63265	0
1.73469	0
1.83673	0
1.93878	0
2.04082	0
2.14286	0
2.2449	0
2.34694	0
2.44898	0
2.55102	0
2.65306	0
2.7551	0
2.85714	0
2.95918	0
3.06122	0
3.16327	0
3.26531	0
3.36735	0
3.46939	0
3.57143	0
3.67347	0
3.77551	0
3.87755	0
3.97959	0
4.08163	0
4.18367	0
4.28571	0
4.38776	0
4.4898	0
4.59184	0
4.69388	0
4.79592	0
4.89796	0
5	0
0	20.9578
0.102041	20.9578
0.204082	20.9578
0.306122	20.9578
0.408163	20.9578
0.510204	20.9578
0.612245	20.9578
0.714286	20.9578
0.816327	20.9578
0.918367	20.9578
1.02041	20.9578
1.12245	20.9578
1.22449	20.9578
1.32653	20.9578
1.42857	20.9578
1.53061	20.9578
1.63265	20.9578
1.73469	20.9578
1.83673	20.9578
1.93878	20.9578
2.04082	20.9578
2.14286	20.9578
2.2449	20.9578
2.34694	20.9578
2.44898	20.9578
2.55102	20.9578
2.65306	20.9578
2.7551	20.9578
2.85714	20.9578
2.95918	20.9578
3.06122	20.9578
3.16327	20.9578
3.26531	20.9578
3.36735	20.9578
3.46939	20.9578
3.57143	20.9578
3.67347	20.9578
3.77551	20.9578
3.87755	20.9578
3.97959	20.9578
4.08163	20.9578
4.18367	20.9578
4.28571	20.9578
4.38776	20.9578
4.4898	20.9578
4.59184	20.9578
4.69388	20.9578
4.79592	20.9578
4.89796	20.9578
5	20.9578
0	20.4153
0.102041	20.4153
0.204082	20.4153
0.306122	20.4153
0.408163	20.4153
0.510204	20.4153
0.612245	20.4153
0.714286	20.4153
0.816327	20.4153
0.918367	20.4153
1.02041	20.4153
1.12245	20.4153
1.22449	20.4153
1.32653	20.4153
1.42857	20.4153
1.53061	20.4153
1.63265	20.4153
1.73469	20.4153
1.83673	20.4153
1.93878	20.4153
2.04082	20.4153
2.14286	20.4153
2.2449	20.4153
2.34694	20.4153
2.44898	20.4153
2.55102	20.4153
2.65306	20.4153
2.7551	20.4153
2.85714	20.4153
2.95918	20.4153
3.06122	20.4153
3.16327	20.4153
3.26531	20.4153
3.36735	20.4153
3.46939	20.4153
3.57143	20.4153
3.67347	20.4153
3.77551	20.4153
3.87755	20.4153
3.97959	20.4153
4.08163	20.4153
4.18367	20.4153
4.28571	20.4153
4.38776	20.4153
4.4898	20.4153
4.59184	20.4153
4.69388	20.4153
4.79592	20.4153
4.89796	20.4153
5	20.4153
0	19.8503
0.102041	19.8503
0.204082	19.8503
0.306122	19.8503
0.408163	19.8503
0.510204	19.8503
0.612245	19.8503
0.714286	19.8503
0.816327	19.8503
0.918367	19.8503
1.02041	19.8503
1.12245	19.8503
1.22449	19.8503
1.32653	19.8503
1.42857	19.8503
1.53061	19.8503
1.63265	19.8503
1.73469	19.8503
1.83673	19.8503
1.93878	19.8503
2.04082	19.8503
2.14286	19.8503
2.2449	19.8503
2.34694	19.8503
2.44898	19.8503
2.55102	19.8503
2.65306	19.8503
2.7551	19.8503
2.85714	19.8503
2.95918	19.8503
3.06122	19.8503
3.16327	19.8503
3.26531	19.8503
3.36735	19.8503
3.46939	19.8503
3.57143	19.8503
3.67347	19.8503
3.77551	19.8503
3.87755	19.8503
3.97959	19.8503
4.08163	19.8503
4.18367	19.8503
4.28571	19.8503
4.38776	19.8503
4.4898	19.8503
4.59184	19.8503
4.69388	19.8503
4.79592	19.8503
4.89796	19.8503
5	19.8503
0	19.2617
0.102041	19.2617
0.204082	19.2617
0.306122	19.2617
0.408163	19.2617
0.510204	19.2617
0.612245	19.2617
0.714286	19.2617
0.816327	19.2617
0.918367	19.2617
1.02041	19.2617
1.12245	19.2617
1.22449	19.2617
1.32653	19.2617
1.42857	19.2617
1.53061	19.2617
1.63265	19.2617
1.73469	19.2617
1.83673	19.2617
1.93878	19.2617
2.04082	19.2617
2.14286	19.2617
2.2449	19.2617
2.34694	19.2617
2.44898	19.2617
2.55102	19.2617
2.65306	19.2617
2.7551	19.2617
2.85714	19.2617
2.95918	19.2617
3.06122	19.2617
3.16327	19.2617
3.26531	19.2617
3.36735	19.2617
3.46939	19.2617
3.57143	19.2617
3.67347	19.2617
3.77551	19.2617
3.87755	19.2617
3.97959	19.2617
4.08163	19.2617
4.18367	19.2617
4.28571	19.2617
4.38776	19.2617
4.4898	19.2617
4.59184	19.2617
4.69388	19.2617
4.79592	19.2617
4.89796	19.2617
5	19.2617
0	18.6485
0.102041	18.6485
0.204082	18.6485
0.306122	18.6485
0.408163	18.6485
0.510204	18.6485
0.612245	18.6485
0.714286	18.6485
0.816327	18.6485
0.918367	18.6485
1.02041	18.6485
1.12245	18.6485
1.22449	18.6485
1.32653	18.6485
1.42857	18.6485
1.53061	18.6485
1.63265	18.6485
1.73469	18.6485
1.83673	18.6485
1.93878	18.6485
2.04082	18.6485
2.14286	18.6485
2.2449	18.6485
2.34694	18.6485
2.44898	18.6485
2.55102	18.6485
2.65306	18.6485
2.7551	18.6485
2.85714	18.6485
2.95918	18.6485
3.06122	18.6485
3.16327	18.6485
3.26531	18.6485
3.36735	18.6485
3.46939	18.6485
3.57143	18.6485
3.67347	18.6485
3.77551	18.6485
3.87755	18.6485
3.97959	18.6485
4.08163	18.6485
4.18367	18.6485
4.28571	18.6485
4.38776	18.6485
4.4898	18.6485
4.59184	18.6485
4.69388	18.6485
4.79592	18.6485
4.89796	18.6485
5	18.6485
0	18.0099
0.102041	18.0099
0.204082	18.0099
0.306122	18.0099
0.408163	18.0099
0.510204	18.0099
0.612245	18.0099
0.714286	18.0099
0.816327	18.0099
0.918367	18.0099
1.02041	18.0099
1.12245	18.0099
1.22449	18.0099
1.32653	18.0099
1.42857	18.0099
1.53061	18.0099
1.63265	18.0099
1.73469	18.0099
1.83673	18.0099
1.93878	18.0099
2.04082	18.0099
2.14286	18.0099
2.2449	18.0099
2.34694	18.0099
2.44898	18.0099
2.55102	18.0099
2.65306	18.0099
2.7551	18.0099
2.85714	18.0099
2.95918	18.0099
3.06122	18.0099
3.16327	18.0099
3.26531	18.0099
3.36735	18.0099
3.46939	18.0099
3.57143	18.0099
3.67347	18.0099
3.77551	18.0099
3.87755	18.0099
3.97959	18.0099
4.08163	18.0099
4.18367	18.0099
4.28571	18.0099
4.38776	18.0099
4.4898	18.0099
4.59184	18.0099
4.69388	18.0099
4.79592	18.0099
4.89796	18.0099
5	18.0099
0	17.3446
0.102041	17.3446
0.204082	17.3446
0.306122	17.3446
0.408163	17.3446
0.510204	17.3446
0.612245	17.3446
0.714286	17.3446
0.816327	17.3446
0.918367	17.3446
1.02041	17.3446
1.12245	17.3446
1.22449	17.3446
1.32653	17.3446
1.42857	17.3446
1.53061	17.3446
1.63265	17.3446
1.73469	17.3446
1.83673	17.3446
1.93878	17.3446
2.04082	17.3446
2.14286	17.3446
2.2449	17.3446
2.34694	17.3446
2.44898	17.3446
2.55102	17.3446
2.65306	17.3446
2.7551	17.3446
2.85714	17.3446
2.95918	17.3446
3.06122	17.3446
3.16327	17.3446
3.26531	17.3446
3.36735	17.3446
3.46939	17.3446
3.57143	17.3446
3.67347	17.3446
3.77551	17.3446
3.87755	17.3446
3.97959	17.3446
4.08163	17.3446
4.18367	17.3446
4.28571	17.3446
4.38776	17.3446
4.4898	17.3446
4.59184	17.3446
4.69388	17.3446
4.79592	17.3446
4.89796	17.3446
5	17.3446
0	16.6516
0.102041	16.6516
0.204082	16.6516
0.306122	16.6516
0.408163	16.6516
0.510204	16.6516
0.612245	16.6516
0.714286	16.6516
0.816327	16.6516
0.918367	16.6516
1.02041	16.6516
1.12245	16.6516
1.22449	16.6516
1.32653	16.6516
1.42857	16.6516
1.53061	16.6516
1.63265	16.6516
1.73469	16.6516
1.83673	16.6516
1.93878	16.6516
2.04082	16.6516
2.14286	16.6516
2.2449	16.6516
2.34694	16.6516
2.44898	16.6516
2.55102	16.6516
2.65306	16.6516
2.7551	16.6516
2.85714	16.6516
2.95918	16.6516
3.06122	16.6516
3.16327	16.6516
3.26531	16.6516
3.36735	16.6516
3.46939	16.6516
3.57143	16.6516
3.67347	16.6516
3.77551	16.6516
3.87755	16.6516
3.97959	16.6516
4.08163	16.6516
4.18367	16.6516
4.28571	16.6516
4.38776	16.6516
4.4898	16.6516
4.59184	16.6516
4.69388	16.6516
4.79592	16.6516
4.89796	16.6516
5	16.6516
0	15.9298
0.102041	15.9298
0.204082	15.9298
0.306122	15.9298
0.408163	15.9298
0.510204	15.9298
0.612245	15.9298
0.714286	15.9298
0.816327	15.9298
0.918367	15.9298
1.02041	15.9298
1.12245	15.9298
1.22449	15.9298
1.32653	15.9298
1.42857	15.9298
1.53061	15.9298
1.63265	15.9298
1.73469	15.9298
1.83673	15.9298
1.93878	15.9298
2.04082	15.9298
2.14286	15.9298
2.2449	15.9298
2.34694	15.9298
2.44898	15.9298
2.55102	15.9298
2.65306	15.9298
2.7551	15.9298
2.85714	15.9298
2.95918	15.9298
3.06122	15.9298
3.16327	15.9298
3.26531	15.9298
3.36735	15.9298
3.46939	15.9298
3.57143	15.9298
3.67347	15.9298
3.77551	15.9298
3.87755	15.9298
3.97959	15.9298
4.08163	15.9298
4.18367	15.9298
4.28571	15.9298
4.38776	15.9298
4.4898	15.9298
4.59184	15.9298
4.69388	15.9298
4.79592	15.9298
4.89796	15.9298
5	15.9298
0	15.1779
0.102041	15.1779
0.204082	15.1779
0.306122	15.1779
0.408163	15.1779
0.510204	15.1779
0.612245	15.1779
0.714286	15.1779
0.816327	15.1779
0.918367	15.1779
1.02041	15.1779
1.12245	15.1779
1.22449	15.1779
1.32653	15.1779
1.42857	15.1779
1.53061	15.1779
1.63265	15.1779
1.73469	15.1779
1.83673	15.1779
1.93878	15.1779
2.04082	15.1779
2.14286	15.1779
2.2449	15.1779
2.34694	15.1779
2.44898	15.1779
2.55102	15.1779
2.65306	15.1779
2.7551	15.1779
2.85714	15.1779
2.95918	15.1779
3.06122	15.1779
3.16327	15.1779
3.26531	15.1779
3.36735	15.1779
3.46939	15.1779
3.57143	15.1779
3.67347	15.1779
3.77551	15.1779
3.87755	15.1779
3.97959	15.1779
4.08163	15.1779
4.18367	15.1779
4.28571	15.1779
4.38776	15.1779
4.4898	15.1779
4.59184	15.1779
4.69388	15.1779
4.79592	15.1779
4.89796	15.1779
5	15.1779
0	14.3946
0.102041	14.3946
0.204082	14.3946
0.306122	14.3946
0.408163	14.3946
0.510204	14.3946
0.612245	14.3946
0.714286	14.3946
0.816327	14.3946
0.918367	14.3946
1.02041	14.3946
1.12245	14.3946
1.22449	14.3946
1.32653	14.3946
1.42857	14.3946
1.53061	14.3946
1.63265	14.3946
1.73469	14.3946
1.83673	14.3946
1.93878	14.3946
2.04082	14.3946
2.14286	14.3946
2.2449	14.3946
2.34694	14.3946
2.44898	14.3946
2.55102	14.3946
2.65306	14.3946
2.7551	14.3946
2.85714	14.3946
2.95918	14.3946
3.06122	14.3946
3.16327	14.3946
3.26531	14.3946
3.36735	14.3946
3.46939	14.3946
3.57143	14.3946
3.67347	14.3946
3.77551	14.3946
3.87755	14.3946
3.97959	14.3946
4.08163	14.3946
4.18367	14.3946
4.28571	14.3946
4.38776	14.3946
4.4898	14.3946
4.59184	14.3946
4.69388	14.3946
4.79592	14.3946
4.89796	14.3946
5	14.3946
0	13.5787
0.102041	13.5787
0.204082	13.5787
0.306122	13.5787
0.408163	13.5787
0.510204	13.5787
0.612245	13.5787
0.714286	13.5787
0.816327	13.5787
0.918367	13.5787
1.02041	13.5787
1.12245	13.5787
1.22449	13.5787
1.32653	13.5787
1.42857	13.5787
1.53061	13.5787
1.63265	13.5787
1.73469	13.5787
1.83673	13.5787
1.93878	13.5787
2.04082	13.5787
2.14286	13.5787
2.2449	13.5787
2.34694	13.5787
2.44898	13.5787
2.55102	13.5787
2.65306	13.5787
2.7551	13.5787
2.85714	13.5787
2.95918	13.5787
3.06122	13.5787
3.16327	13.5787
3.26531	13.5787
3.36735	13.5787
3.46939	13.5787
3.57143	13.5787
3.67347	13.5787
3.77551	13.5787
3.87755	13.5787
3.97959	13.5787
4.08163	13.5787
4.18367	13.5787
4.28571	13.5787
4.38776	13.5787
4.4898	13.5787
4.59184	13.5787
4.69388	13.5787
4.79592	13.5787
4.89796	13.5787
5	13.5787
0	12.7289
0.102041	12.7289
0.204082	12.7289
0.306122	12.7289
0.408163	12.7289
0.510204	12.7289
0.612245	12.7289
0.714286	12.7289
0.816327	12.7289
0.918367	12.7289
1.02041	12.7289
1.12245	12.7289
1.22449	12.7289
1.32653	12.7289
1.42857	12.7289
1.53061	12.7289
1.63265	12.7289
1.73469	12.7289
1.83673	12.7289
1.93878	12.7289
2.04082	12.7289
2.14286	12.7289
2.2449	12.7289
2.34694	12.7289
2.44898	12.7289
2.55102	12.7289
2.65306	12.7289
2.7551	12.7289
2.85714	12.7289
2.95918	12.7289
3.06122	12.7289
3.16327	12.7289
3.26531	12.7289
3.36735	12.7289
3.46939	12.7289
3.57143	12.7289
3.67347	12.7289
3.77551	12.7289
3.87755	12.7289
3.97959	12.7289
4.08163	12.7289
4.18367	12.7289
4.28571	12.7289
4.38776	12.7289
4.4898	12.7289
4.59184	12.7289
4.69388	12.7289
4.79592	12.7289
4.89796	12.7289
5	12.7289
0	11.8436
0.102041	11.8436
0.204082	11.8436
0.306122	11.8436
0.408163	11.8436
0.510204	11.8436
0.612245	11.8436
0.714286	11.8436
0.816327	11.8436
0.918367	11.8436
1.02041	11.8436
1.12245	11.8436
1.22449	11.8436
1.32653	11.8436
1.42857	11.8436
1.53061	11.8436
1.63265	11.8436
1.73469	11.8436
1.83673	11.8436
1.93878	11.8436
2.04082	11.8436
2.14286	11.8436
2.2449	11.8436
2.34694	11.8436
2.44898	11.8436
2.55102	11.8436
2.65306	11.8436
2.7551	11.8436
2.85714	11.8436
2.95918	11.8436
3.06122	11.8436
3.16327	11.8436
3.26531	11.8436
3.36735	11.8436
3.46939	11.8436
3.57143	11.8436
3.67347	11.8436
3.77551	11.8436
3.87755	11.8436
3.97959	11.8436
4.08163	11.8436
4.18367	11.8436
4.28571	11.8436
4.38776	11.8436
4.4898	11.8436
4.59184	11.8436
4.69388	11.8436
4.79592	11.8436
4.89796	11.8436
5	11.8436
0	10.9214
0.102041	10.9214
0.204082	10.9214
0.306122	10.9214
0.408163	10.9214
0.510204	10.9214
0.612245	10.9214
0.714286	10.9214
0.816327	10.9214
0.918367	10.9214
1.02041	10.9214
1.12245	10.9214
1.22449	10.9214
1.32653	10.9214
1.42857	10.9214
1.53061	10.9214
1.63265	10.9214
1.73469	10.9214
1.83673	10.9214
1.93878	10.9214
2.04082	10.9214
2.14286	10.9214
2.2449	10.9214
2.34694	10.9214
2.44898	10.9214
2.55102	10.9214
2.65306	10.9214
2.7551	10.9214
2.85714	10.9214
2.95918	10.9214
3.06122	10.9214
3.16327	10.9214
3.26531	10.9214
3.36735	10.9214
3.46939	10.9214
3.57143	10.9214
3.67347	10.9214
3.77551	10.9214
3.87755	10.9214
3.97959	10.9214
4.08163	10.9214
4.18367	10.9214
4.28571	10.9214
4.38776	10.9214
4.4898	10.9214
4.59184	10.9214
4.69388	10.9214
4.79592	10.9214
4.89796	10.9214
5	10.9214
0	9.96085
0.102041	9.96085
0.204082	9.96085
0.306122	9.96085
0.408163	9.96085
0.510204	9.96085
0.612245	9.96085
0.714286	9.96085
0.816327	9.96085
0.918367	9.96085
1.02041	9.96085
1.12245	9.96085
1.22449	9.96085
1.32653	9.96085
1.42857	9.96085
1.53061	9.96085
1.63265	9.96085
1.73469	9.96085
1.83673	9.96085
1.93878	9.96085
2.04082	9.96085
2.14286	9.96085
2.2449	9.96085
2.34694	9.96085
2.44898	9.96085
2.55102	9.96085
2.65306	9.96085
2.7551	9.96085
2.85714	9.96085
2.95918	9.96085
3.06122	9.96085
3.16327	9.96085
3.26531	9.96085
3.36735	9.96085
3.46939	9.96085
3.57143	9.96085
3.67347	9.96085
3.77551	9.96085
3.87755	9.96085
3.97959	9.96085
4.08163	9.96085
4.18367	9.96085
4.28571	9.96085
4.38776	9.96085
4.4898	9.96085
4.59184	9.96085
4.69388	9.96085
4.79592	9.96085
4.89796	9.96085
5	9.96085
0	8.96026
0.102041	8.96026
0.204082	8.96026
0.306122	8.96026
0.408163	8.96026
0.510204	8.96026
0.612245	8.96026
0.714286	8.96026
0.816327	8.96026
0.918367	8.96026
1.02041	8.96026
1.12245	8.96026
1.22449	8.96026
1.32653	8.96026
1.42857	8.96026
1.53061	8.96026
1.63265	8.96026
1.73469	8.96026
1.83673	8.96026
1.93878	8.96026
2.04082	8.96026
2.14286	8.96026
2.2449	8.96026
2.34694	8.96026
2.44898	8.96026
2.55102	8.96026
2.65306	8.96026
2.7551	8.96026
2.85714	8.96026
2.95918	8.96026
3.06122	8.96026
3.16327	8.96026
3.26531	8.96026
3.36735	8.96026
3.46939	8.96026
3.57143	8.96026
3.67347	8.96026
3.77551	8.96026
3.87755	8.96026
3.97959	8.96026
4.08163	8.96026
4.18367	8.96026
4.28571	8.96026
4.38776	8.96026
4.4898	8.96026
4.59184	8.96026
4.69388	8.96026
4.79592	8.96026
4.89796	8.96026
5	8.96026
0	7.91798
0.102041	7.91798
0.204082	7.91798
0.306122	7.91798
0.408163	7.91798
0.510204	7.91798
0.612245	7.91798
0.714286	7.91798
0.816327	7.91798
0.918367	7.91798
1.02041	7.91798
1.12245	7.91798
1.22449	7.91798
1.32653	7.91798
1.42857	7.91798
1.53061	7.91798
1.63265	7.91798
1.73469	7.91798
1.83673	7.91798
1.93878	7.91798
2.04082	7.91798
2.14286	7.91798
2.2449	7.91798
2.34694	7.91798
2.44898	7.91798
2.55102	7.91798
2.65306	7.91798
2.7551	7.91798
2.85714	7.91798
2.95918	7.91798
3.06122	7.91798
3.16327	7.91798
3.26531	7.91798
3.36735	7.91798
3.46939	7.91798
3.57143	7.91798
3.67347	7.91798
3.77551	7.91798
3.87755	7.91798
3.97959	7.91798
4.08163	7.91798
4.18367	7.91798
4.28571	7.91798
4.38776	7.91798
4.4898	7.91798
4.59184	7.91798
4.69388	7.91798
4.79592	7.91798
4.89796	7.91798
5	7.91798
0	6.83227
0.102041	6.83227
0.204082	6.83227
0.306122	6.83227
0.408163	6.83227
0.510204	6.83227
0.612245	6.83227
0.714286	6.83227
0.816327	6.83227
0.918367	6.83227
1.02041	6.83227
1.12245	6.83227
1.22449	6.83227
1.32653	6.83227
1.42857	6.83227
1.53061	6.83227
1.63265	6.83227
1.73469	6.83227
1.83673	6.83227
1.93878	6.83227
2.04082	6.83227
2.14286	6.83227
2.2449	6.83227
2.34694	6.83227
2.44898	6.83227
2.55102	6.83227
2.65306	6.83227
2.7551	6.83227
2.85714	6.83227
2.95918	6.83227
3.06122	6.83227
3.16327	6.83227
3.26531	6.83227
3.36735	6.83227
3.46939	6.83227
3.57143	6.83227
3.67347	6.83227
3.77551	6.83227
3.87755	6.83227
3.97959	6.83227
4.08163	6.83227
4.18367	6.83227
4.28571	6.83227
4.38776	6.83227
4.4898	6.83227
4.59184	6.83227
4.69388	6.83227
4.79592	6.83227
4.89796	6.83227
5	6.83227
0	5.70134
0.102041	5.70134
0.204082	5.70134
0.306122	5.70134
0.408163	5.70134
0.510204	5.70134
0.612245	5.70134
0.714286	5.70134
0.816327	5.70134
0.918367	5.70134
1.02041	5.70134
1.12245	5.70134
1.22449	5.70134
1.32653	5.70134
1.42857	5.70134
1.53061	5.70134
1.63265	5.70134
1.73469	5.70134
1.83673	5.70134
1.93878	5.70134
2.04082	5.70134
2.14286	5.70134
2.2449	5.70134
2.34694	5.70134
2.44898	5.70134
2.55102	5.70134
2.65306	5.70134
2.7551	5.70134
2.85714	5.70134
2.95918	5.70134
3.06122	5.70134
3.16327	5.70134
3.26531	5.70134
3.36735	5.70134
3.46939	5.70134
3.57143	5.70134
3.67347	5.70134
3.77551	5.70134
3.87755	5.70134
3.97959	5.70134
4.08163	5.70134
4.18367	5.70134
4.28571	5.70134
4.38776	5.70134
4.4898	5.70134
4.59184	5.70134
4.69388	5.70134
4.79592	5.70134
4.89796	5.70134
5	5.70134
0	4.52329
0.102041	4.52329
0.204082	4.52329
0.306122	4.52329
0.408163	4.52329
0.510204	4.52329
0.612245	4.52329
0.714286	4.52329
0.816327	4.52329
0.918367	4.52329
1.02041	4.52329
1.12245	4.52329
1.22449	4.52329
1.32653	4.52329
1.42857	4.52329
1.53061	4.52329
1.63265	4.52329
1.73469	4.52329
1.83673	4.52329
1.93878	4.52329
2.04082	4.52329
2.14286	4.52329
2.2449	4.52329
2.34694	4.52329
2.44898	4.52329
2.55102	4.52329
2.65306	4.52329
2.7551	4.52329
2.85714	4.52329
2.95918	4.52329
3.06122	4.52329
3.16327	4.52329
3.26531	4.52329
3.36735	4.52329
3.46939	4.52329
3.57143	4.52329
3.67347	4.52329
3.77551	4.52329
3.87755	4.52329
3.97959	4.52329
4.08163	4.52329
4.18367	4.52329
4.28571	4.52329
4.38776	4.52329
4.4898	4.52329
4.59184	4.52329
4.69388	4.52329
4.79592	4.52329
4.89796	4.52329
5	4.52329
0	3.29616
0.102041	3.29616
0.204082	3.29616
0.306122	3.29616
0.408163	3.29616
0.510204	3.29616
0.612245	3.29616
0.714286	3.29616
0.816327	3.29616
0.918367	3.29616
1.02041	3.29616
1.12245	3.29616
1.22449	3.29616
1.32653	3.29616
1.42857	3.29616
1.53061	3.29616
1.63265	3.29616
1.73469	3.29616
1.83673	3.29616
1.93878	3.29616
2.04082	3.29616
2.14286	3.29616
2.2449	3.29616
2.34694	3.29616
2.44898	3.29616
2.55102	3.29616
2.65306	3.29616
2.7551	3.29616
2.85714	3.29616
2.95918	3.29616
3.06122	3.29616
3.16327	3.29616
3.26531	3.29616
3.36735	3.29616
3.46939	3.29616
3.57143	3.29616
3.67347	3.29616
3.77551	3.29616
3.87755	3.29616
3.97959	3.29616
4.08163	3.29616
4.18367	3.29616
4.28571	3.29616
4.38776	3.29616
4.4898	3.29616
4.59184	3.29616
4.69388	3.29616
4.79592	3.29616
4.89796	3.29616
5	3.29616
0	2.01791
0.102041	2.01791
0.204082	2.01791
0.306122	2.01791
0.408163	2.01791
0.510204	2.01791
0.612245	2.01791
0.714286	2.01791
0.816327	2.01791
0.918367	2.01791
1.02041	2.01791
1.12245	2.01791
1.22449	2.01791
1.32653	2.01791
1.42857	2.01791
1.53061	2.01791
1.63265	2.01791
1.73469	2.01791
1.83673	2.01791
1.93878	2.01791
2.04082	2.01791
2.14286	2.01791
2.2449	2.01791
2.34694	2.01791
2.44898	2.01791
2.55102	2.01791
2.65306	2.01791
2.7551	2.01791
2.85714	2.01791
2.95918	2.01791
3.06122	2.01791
3.16327	2.01791
3.26531	2.01791
3.36735	2.01791
3.46939	2.01791
3.57143	2.01791
3.67347	2.01791
3.77551	2.01791
3.87755	2.01791
3.97959	2.01791
4.08163	2.01791
4.18367	2.01791
4.28571	2.01791
4.38776	2.01791
4.4898	2.01791
4.59184	2.01791
4.69388	2.01791
4.79592	2.01791
4.89796	2.01791
5	2.01791
0	0.686411
0.102041	0.686411
0.204082	0.686411
0.306122	0.686411
0.408163	0.686411
0.510204	0.686411
0.612245	0.686411
0.714286	0.686411
0.816327	0.686411
0.918367	0.686411
1.02041	0.686411
1.12245	0.686411
1.22449	0.686411
1.32653	0.686411
1.42857	0.686411
1.53061	0.686411
1.63265	0.686411
1.73469	0.686411
1.83673	0.686411
1.93878	0.686411
2.04082	0.686411
2.14286	0.686411
2.2449	0.686411
2.34694	0.686411
2.44898	0.686411
2.55102	0.686411
2.65306	0.686411
2.7551	0.686411
2.85714	0.686411
2.95918	0.686411
3.06122	0.686411
3.16327	0.686411
3.26531	0.686411
3.36735	0.686411
3.46939	0.686411
3.57143	0.686411
3.67347	0.686411
3.77551	0.686411
3.87755	0.686411
3.97959	0.686411
4.08163	0.686411
4.18367	0.686411
4.28571	0.686411
4.38776	0.686411
4.4898	0.686411
4.59184	0.686411
4.69388	0.686411
4.79592	0.686411
4.89796	0.686411
5	0.686411
0	12.5246
0.102041	12.5246
0.204082	12.5246
0.306122	12.5246
0.408163	12.5246
0.510204	12.5246
0.612245	12.5246
0.714286	12.5246
0.816327	12.5246
0.918367	12.5246
1.02041	12.5246
1.12245	12.5246
1.22449	12.5246
1.32653	12.5246
1.42857	12.5246
1.53061	12.5246
1.63265	12.5246
1.73469	12.5246
1.83673	12.5246
1.93878	12.5246
2.04082	12.5246
2.14286	12.5246
2.2449	12.5246
2.34694	12.5246
2.44898	12.5246
2.55102	12.5246
2.65306	12.5246
2.7551	12.5246
2.85714	12.5246
2.95918	12.5246
3.06122	12.5246
3.16327	12.5246
3.26531	12.5246
3.36735	12.5246
3.46939	12.5246
3.57143	12.5246
3.67347	12.5246
3.77551	12.5246
3.87755	12.5246
3.97959	12.5246
4.08163	12.5246
4.18367	12.5246
4.28571	12.5246
4.38776	12.5246
4.4898	12.5246
4.59184	12.5246
4.69388	12.5246
4.79592	12.5246
4.89796	12.5246
5	12.5246
0	12.582
0.102041	12.582
0.204082	12.582
0.306122	12.582
0.408163	12.582
0.510204	12.582
0.612245	12.582
0.714286	12.582
0.816327	12.582
0.918367	12.582
1.02041	12.582
1.12245	12.582
1.22449	12.582
1.32653	12.582
1.42857	12.582
1.53061	12.582
1.63265	12.582
1.73469	12.582
1.83673	12.582
1.93878	12.582
2.04082	12.582
2.14286	12.582
2.2449	12.582
2.34694	12.582
2.44898	12.582
2.55102	12.582
2.65306	12.582
2.7551	12.582
2.85714	12.582
2.95918	12.582
3.06122	12.582
3.16327	12.582
3.26531	12.582
3.36735	12.582
3.46939	12.582
3.57143	12.582
3.67347	12.582
3.77551	12.582
3.87755	12.582
3.97959	12.582
4.08163	12.582
4.18367	12.582
4.28571	12.582
4.38776	12.582
4.4898	12.582
4.59184	12.582
4.69388	12.582
4.79592	12.582
4.89796	12.582
5	12.582
0	12.6524
0.102041	12.6524
0.204082	12.6524
0.306122	12.6524
0.408163	12.6524
0.510204	12.6524
0.612245	12.6524
0.714286	12.6524
0.816327	12.6524
0.918367	12.6524
1.02041	12.6524
1.12245	12.6524
1.22449	12.6524
1.32653	12.6524
1.42857	12.6524
1.53061	12.6524
1.63265	12.6524
1.73469	12.6524
1.83673	12.6524
1.93878	12.6524
2.04082	12.6524
2.14286	12.6524
2.2449	12.6524
2.34694	12.6524
2.44898	12.6524
2.55102	12.6524
2.65306	12.6524
2.7551	12.6524
2.85714	12.6524
2.95918	12.6524
3.06122	12.6524
3.16327	12.6524
3.26531	12.6524
3.36735	12.6524
3.46939	12.6524
3.57143	12.6524
3.67347	12.6524
3.77551	12.6524
3.87755	12.6524
3.97959	12.6524
4.08163	12.6524
4.18367	12.6524
4.28571	12.6524
4.38776	12.6524
4.4898	12.6524
4.59184	12.6524
4.69388	12.6524
4.79592	12.6524
4.89796	12.6524
5	12.6524
0	12.7387
0.102041	12.7387
0.204082	12.7387
0.306122	12.7387
0.408163	12.7387
0.510204	12.7387
0.612245	12.7387
0.714286	12.7387
0.816327	12.7387
0.918367	12.7387
1.02041	12.7387
1.12245	12.7387
1.22449	12.7387
1.32653	12.7387
1.42857	12.7387
1.53061	12.7387
1.63265	12.7387
1.73469	12.7387
1.83673	12.7387
1.93878	12.7387
2.04082	12.7387
2.14286	12.7387
2.2449	12.7387
2.34694	12.7387
2.44898	12.7387
2.55102	12.7387
2.65306	12.7387
2.7551	12.7387
2.85714	12.7387
2.95918	12.7387
3.06122	12.7387
3.16327	12.7387
3.26531	12.7387
3.36735	12.7387
3.46939	12.7387
3.57143	12.7387
3.67347	12.7387
3.77551	12.7387
3.87755	12.7387
3.97959	12.7387
4.08163	12.7387
4.18367	12.7387
4.28571	12.7387
4.38776	12.7387
4.4898	12.7387
4.59184	12.7387
4.69388	12.7387
4.79592	12.7387
4.89796	12.7387
5	12.7387
0	12.8446
0.102041	12.8446
0.204082	12.8446
0.306122	12.8446
0.408163	12.8446
0.510204	12.8446
0.612245	12.8446
0.714286	12.8446
0.816327	12.8446
0.918367	12.8446
1.02041	12.8446
1.12245	12.8446
1.22449	12.8446
1.32653	12.8446
1.42857	12.8446
1.53061	12.8446
1.63265	12.8446
1.73469	12.8446
1.83673	12.8446
1.93878	12.8446
2.04082	12.8446
2.14286	12.8446
2.2449	12.8446
2.34694	12.8446
2.44898	12.8446
2.55102	12.8446
2.65306	12.8446
2.7551	12.8446
2.85714	12.8446
2.95918	12.8446
3.06122	12.8446
3.16327	12.8446
3.26531	12.8446
3.36735	12.8446
3.46939	12.8446
3.57143	12.8446
3.67347	12.8446
3.77551	12.8446
3.87755	12.8446
3.97959	12.8446
4.08163	12.8446
4.18367	12.8446
4.28571	12.8446
4.38776	12.8446
4.4898	12.8446
4.59184	12.8446
4.69388	12.8446
4.79592	12.8446
4.89796	12.8446
5	12.8446
0	12.9745
0.102041	12.9745
0.204082	12.9745
0.306122	12.9745
0.408163	12.9745
0.510204	12.9745
0.612245	12.9745
0.714286	12.9745
0.816327	12.9745
0.918367	12.9745
1.02041	12.9745
1.12245	12.9745
1.22449	12.9745
1.32653	12.9745
1.42857	12.9745
1.53061	12.9745
1.63265	12.9745
1.73469	12.9745
1.83673	12.9745
1.93878	12.9745
2.04082	12.9745
2.14286	12.9745
2.2449	12.9745
2.34694	12.9745
2.44898	12.9745
2.55102	12.9745
2.65306	12.9745
2.7551	12.9745
2.85714	12.9745
2.95918	12.9745
3.06122	12.9745
3.16327	12.9745
3.26531	12.9745
3.36735	12.9745
3.46939	12.9745
3.57143	12.9745
3.67347	12.9745
3.77551	12.9745
3.87755	12.9745
3.97959	12.9745
4.08163	12.9745
4.18367	12.9745
4.28571	12.9745
4.38776	12.9745
4.4898	12.9745
4.59184	12.9745
4.69388	12.9745
4.79592	12.9745
4.89796	12.9745
5	12.9745
0	13.1337
0.102041	13.1337
0.204082	13.1337
0.306122	13.1337
0.408163	13.1337
0.510204	13.1337
0.612245	13.1337
0.714286	13.1337
0.816327	13.1337
0.918367	13.1337
1.02041	13.1337
1.12245	13.1337
1.22449	13.1337
1.32653	13.1337
1.42857	13.1337
1.53061	13.1337
1.63265	13.1337
1.73469	13.1337
1.83673	13.1337
1.93878	13.1337
2.04082	13.1337
2.14286	13.1337
2.2449	13.1337
2.34694	13.1337
2.44898	13.1337
2.55102	13.1337
2.65306	13.1337
2.7551	13.1337
2.85714	13.1337
2.95918	13.1337
3.06122	13.1337
3.16327	13.1337
3.26531	13.1337
3.36735	13.1337
3.46939	13.1337
3.57143	13.1337
3.67347	13.1337
3.77551	13.1337
3.87755	13.1337
3.97959	13.1337
4.08163	13.1337
4.18367	13.1337
4.28571	13.1337
4.38776	13.1337
4.4898	13.1337
4.59184	13.1337
4.69388	13.1337
4.79592	13.1337
4.89796	13.1337
5	13.1337
0	13.329
0.102041	13.329
0.204082	13.329
0.306122	13.329
0.408163	13.329
0.510204	13.329
0.612245	13.329
0.714286	13.329
0.816327	13.329
0.918367	13.329
1.02041	13.329
1.12245	13.329
1.22449	13.329
1.32653	13.329
1.42857	13.329
1.53061	13.329
1.63265	13.329
1.73469	13.329
1.83673	13.329
1.93878	13.329
2.04082	13.329
2.14286	13.329
2.2449	13.329
2.34694	13.329
2.44898	13.329
2.55102	13.329
2.65306	13.329
2.7551	13.329
2.85714	13.329
2.95918	13.329
3.06122	13.329
3.16327	13.329
3.26531	13.329
3.36735	13.329
3.46939	13.329
3.57143	13.329
3.67347	13.329
3.77551	13.329
3.87755	13.329
3.97959	13.329
4.08163	13.329
4.18367	13.329
4.28571	13.329
4.38776	13.329
4.4898	13.329
4.59184	13.329
4.69388	13.329
4.79592	13.329
4.89796	13.329
5	13.329
0	13.5685
0.102041	13.5685
0.204082	13.5685
0.306122	13.5685
0.408163	13.5685
0.510204	13.5685
0.612245	13.5685
0.714286	13.5685
0.816327	13.5685
0.918367	13.5685
1.02041	13.5685
1.12245	13.5685
1.22449	13.5685
1.32653	13.5685
1.42857	13.5685
1.53061	13.5685
1.63265	13.5685
1.73469	13.5685
1.83673	13.5685
1.93878	13.5685
2.04082	13.5685
2.14286	13.5685
2.2449	13.5685
2.34694	13.5685
2.44898	13.5685
2.55102	13.5685
2.65306	13.5685
2.7551	13.5685
2.85714	13.5685
2.95918	13.5685
3.06122	13.5685
3.16327	13.5685
3.26531	13.5685
3.36735	13.5685
3.46939	13.5685
3.57143	13.5685
3.67347	13.5685
3.77551	13.5685
3.87755	13.5685
3.97959	13.5685
4.08163	13.5685
4.18367	13.5685
4.28571	13.5685
4.38776	13.5685
4.4898	13.5685
4.59184	13.5685
4.69388	13.5685
4.79592	13.5685
4.89796	13.5685
5	13.5685
0	13.8623
0.102041	13.8623
0.204082	13.8623
0.306122	13.8623
0.408163	13.8623
0.510204	13.8623
0.612245	13.8623
0.714286	13.8623
0.816327	13.8623
0.918367	13.8623
1.02041	13.8623
1.12245	13.8623
1.22449	13.8623
1.32653	13.8623
1.42857	13.8623
1.53061	13.8623
1.63265	13.8623
1.73469	13.8623
1.83673	13.8623
1.93878	13.8623
2.04082	13.8623
2.14286	13.8623
2.2449	13.8623
2.34694	13.8623
2.44898	13.8623
2.55102	13.8623
2.65306	13.8623
2.7551	13.8623
2.85714	13.8623
2.95918	13.8623
3.06122	13.8623
3.16327	13.8623
3.26531	13.8623
3.36735	13.8623
3.46939	13.8623
3.57143	13.8623
3.67347	13.8623
3.77551	13.8623
3.87755	13.8623
3.97959	13.8623
4.08163	13.8623
4.18367	13.8623
4.28571	13.8623
4.38776	13.8623
4.4898	13.8623
4.59184	13.8623
4.69388	13.8623
4.79592	13.8623
4.89796	13.8623
5	13.8623
0	14.2225
0.102041	14.2225
0.204082	14.2225
0.306122	14.2225
0.408163	14.2225
0.510204	14.2225
0.612245	14.2225
0.714286	14.2225
0.816327	14.2225
0.918367	14.2225
1.02041	14.2225
1.12245	14.2225
1.22449	14.2225
1.32653	14.2225
1.42857	14.2225
1.53061	14.2225
1.63265	14.2225
1.73469	14.2225
1.83673	14.2225
1.93878	14.2225
2.04082	14.2225
2.14286	14.2225
2.2449	14.2225
2.34694	14.2225
2.44898	14.2225
2.55102	14.2225
2.65306	14.2225
2.7551	14.2225
2.85714	14.2225
2.95918	14.2225
3.06122	14.2225
3.16327	14.2225
3.26531	14.2225
3.36735	14.2225
3.46939	14.2225
3.57143	14.2225
3.67347	14.2225
3.77551	14.2225
3.87755	14.2225
3.97959	14.2225
4.08163	14.2225
4.18367	14.2225
4.28571	14.2225
4.38776	14.2225
4.4898	14.2225
4.59184	14.2225
4.69388	14.2225
4.79592	14.2225
4.89796	14.2225
5	14.2225
0	14.6643
0.102041	14.6643
0.204082	14.6643
0.306122	14.6643
0.408163	14.6643
0.510204	14.6643
0.612245	14.6643
0.714286	14.6643
0.816327	14.6643
0.918367	14.6643
1.02041	14.6643
1.12245	14.6643
1.22449	14.6643
1.32653	14.6643
1.42857	14.6643
1.53061	14.6643
1.63265	14.6643
1.73469	14.6643
1.83673	14.6643
1.93878	14.6643
2.04082	14.6643
2.14286	14.6643
2.2449	14.6643
2.34694	14.6643
2.44898	14.6643
2.55102	14.6643
2.65306	14.6643
2.7551	14.6643
2.85714	14.6643
2.95918	14.6643
3.06122	14.6643
3.16327	14.6643
3.26531	14.6643
3.36735	14.6643
3.46939	14.6643
3.57143	14.6643
3.67347	14.6643
3.77551	14.6643
3.87755	14.6643
3.97959	14.6643
4.08163	14.6643
4.18367	14.6643
4.28571	14.6643
4.38776	14.6643
4.4898	14.6643
4.59184	14.6643
4.69388	14.6643
4.79592	14.6643
4.89796	14.6643
5	14.6643
0	15.2062
0.102041	15.2062
0.204082	15.2062
0.306122	15.2062
0.408163	15.2062
0.510204	15.2062
0.612245	15.2062
0.714286	15.2062
0.816327	15.2062
0.918367	15.2062
1.02041	15.2062
1.12245	15.2062
1.22449	15.2062
1.32653	15.2062
1.42857	15.2062
1.53061	15.2062
1.63265	15.2062
1.73469	15.2062
1.83673	15.2062
1.93878	15.2062
2.04082	15.2062
2.14286	15.2062
2.2449	15.2062
2.34694	15.2062
2.44898	15.2062
2.55102	15.2062
2.65306	15.2062
2.7551	15.2062
2.85714	15.2062
2.95918	15.2062
3.06122	15.2062
3.16327	15.2062
3.26531	15.2062
3.36735	15.2062
3.46939	15.2062
3.57143	15.2062
3.67347	15.2062
3.77551	15.2062
3.87755	15.2062
3.97959	15.2062
4.08163	15.2062
4.18367	15.2062
4.28571	15.2062
4.38776	15.2062
4.4898	15.2062
4.59184	15.2062
4.69388	15.2062
4.79592	15.2062
4.89796	15.2062
5	15.2062
0	15.8707
0.102041	15.8707
0.204082	15.8707
0.306122	15.8707
0.408163	15.8707
0.510204	15.8707
0.612245	15.8707
0.714286	15.8707