VARIABLES = X Y
ZONE I = 50, J = 75, F = POINT
0	0
0.0204082	0
0.0408163	0
0.0612245	0
0.0816327	0
0.102041	0
0.122449	0
0.142857	0
0.163265	0
0.183673	0
0.204082	0
0.22449	0
0.244898	0
0.265306	0
0.285714	0
0.306122	0
0.326531	0
0.346939	0
0.367347	0
0.387755	0
0.408163	0
0.428571	0
0.44898	0
0.469388	0
0.489796	0
0.510204	0
0.530612	0
0.55102	0
0.571429	0
0.591837	0
0.612245	0
0.632653	0
0.653061	0
0.673469	0
0.693878	0
0.714286	0
0.734694	0
0.755102	0
0.77551	0
0.795918	0
0.816327	0
0.836735	0
0.857143	0
0.877551	0
0.897959	0
0.918367	0
0.938776	0
0.959184	0
0.979592	0
1	0
0	0.0204082
0.0204082	0.0204082
0.0408163	0.0204082
0.0612245	0.0204082
0.0816327	0.0204082
0.102041	0.0204082
0.122449	0.0204082
0.142857	0.0204082
0.163265	0.0204082
0.183673	0.0204082
0.204082	0.0204082
0.22449	0.0204082
0.244898	0.0204082
0.265306	0.0204082
0.285714	0.0204082
0.306122	0.0204082
0.326531	0.0204082
0.346939	0.0204082
0.367347	0.0204082
0.387755	0.0204082
0.408163	0.0204082
0.428571	0.0204082
0.44898	0.0204082
0.469388	0.0204082
0.489796	0.0204082
0.510204	0.0204082
0.530612	0.0204082
0.55102	0.0204082
0.571429	0.0204082
0.591837	0.0204082
0.612245	0.0204082
0.632653	0.0204082
0.653061	0.0204082
0.673469	0.0204082
0.693878	0.0204082
0.714286	0.0204082
0.734694	0.0204082
0.755102	0.0204082
0.77551	0.0204082
0.795918	0.0204082
0.816327	0.0204082
0.836735	0.0204082
0.857143	0.0204082
0.877551	0.0204082
0.897959	0.0204082
0.918367	0.0204082
0.938776	0.0204082
0.959184	0.0204082
0.979592	0.0204082
1	0.0204082
0	0.0408163
0.0204082	0.0408163
0.0408163	0.0408163
0.0612245	0.0408163
0.0816327	0.0408163
0.102041	0.0408163
0.122449	0.0408163
0.142857	0.0408163
0.163265	0.0408163
0.183673	0.0408163
0.204082	0.0408163
0.22449	0.0408163
0.244898	0.0408163
0.265306	0.0408163
0.285714	0.0408163
0.306122	0.0408163
0.326531	0.0408163
0.346939	0.0408163
0.367347	0.0408163
0.387755	0.0408163
0.408163	0.0408163
0.428571	0.0408163
0.44898	0.0408163
0.469388	0.0408163
0.489796	0.0408163
0.510204	0.0408163
0.530612	0.0408163
0.55102	0.0408163
0.571429	0.0408163
0.591837	0.0408163
0.612245	0.0408163
0.632653	0.0408163
0.653061	0.0408163
0.673469	0.0408163
0.693878	0.0408163
0.714286	0.0408163
0.734694	0.0408163
0.755102	0.0408163
0.77551	0.0408163
0.795918	0.0408163
0.816327	0.0408163
0.836735	0.0408163
0.857143	0.0408163
0.877551	0.0408163
0.897959	0.0408163
0.918367	0.0408163
0.938776	0.0408163
0.959184	0.0408163
0.979592	0.0408163
1	0.0408163
0	0.0612245
0.0204082	0.0612245
0.0408163	0.0612245
0.0612245	0.0612245
0.0816327	0.0612245
0.102041	0.0612245
0.122449	0.0612245
0.142857	0.0612245
0.163265	0.0612245
0.183673	0.0612245
0.204082	0.0612245
0.22449	0.0612245
0.244898	0.0612245
0.265306	0.0612245
0.285714	0.0612245
0.306122	0.0612245
0.326531	0.0612245
0.346939	0.0612245
0.367347	0.0612245
0.387755	0.0612245
0.408163	0.0612245
0.428571	0.0612245
0.44898	0.0612245
0.469388	0.0612245
0.489796	0.0612245
0.510204	0.0612245
0.530612	0.0612245
0.55102	0.0612245
0.571429	0.0612245
0.591837	0.0612245
0.612245	0.0612245
0.632653	0.0612245
0.653061	0.0612245
0.673469	0.0612245
0.693878	0.0612245
0.714286	0.0612245
0.734694	0.0612245
0.755102	0.0612245
0.77551	0.0612245
0.795918	0.0612245
0.816327	0.0612245
0.836735	0.0612245
0.857143	0.0612245
0.877551	0.0612245
0.897959	0.0612245
0.918367	0.0612245
0.938776	0.0612245
0.959184	0.0612245
0.979592	0.0612245
1	0.0612245
0	0.0816327
0.0204082	0.0816327
0.0408163	0.0816327
0.0612245	0.0816327
0.0816327	0.0816327
0.102041	0.0816327
0.122449	0.0816327
0.142857	0.0816327
0.163265	0.0816327
0.183673	0.0816327
0.204082	0.0816327
0.22449	0.0816327
0.244898	0.0816327
0.265306	0.0816327
0.285714	0.0816327
0.306122	0.0816327
0.326531	0.0816327
0.346939	0.0816327
0.367347	0.0816327
0.387755	0.0816327
0.408163	0.0816327
0.428571	0.0816327
0.44898	0.0816327
0.469388	0.0816327
0.489796	0.0816327
0.510204	0.0816327
0.530612	0.0816327
0.55102	0.0816327
0.571429	0.0816327
0.591837	0.0816327
0.612245	0.0816327
0.632653	0.0816327
0.653061	0.0816327
0.673469	0.0816327
0.693878	0.0816327
0.714286	0.0816327
0.734694	0.0816327
0.755102	0.0816327
0.77551	0.0816327
0.795918	0.0816327
0.816327	0.0816327
0.836735	0.0816327
0.857143	0.0816327
0.877551	0.0816327
0.897959	0.0816327
0.918367	0.0816327
0.938776	0.0816327
0.959184	0.0816327
0.979592	0.0816327
1	0.0816327
0	0.102041
0.0204082	0.102041
0.0408163	0.102041
0.0612245	0.102041
0.0816327	0.102041
0.102041	0.102041
0.122449	0.102041
0.142857	0.102041
0.163265	0.102041
0.183673	0.102041
0.204082	0.102041
0.22449	0.102041
0.244898	0.102041
0.265306	0.102041
0.285714	0.102041
0.306122	0.102041
0.326531	0.102041
0.346939	0.102041
0.367347	0.102041
0.387755	0.102041
0.408163	0.102041
0.428571	0.102041
0.44898	0.102041
0.469388	0.102041
0.489796	0.102041
0.510204	0.102041
0.530612	0.102041
0.55102	0.102041
0.571429	0.102041
0.591837	0.102041
0.612245	0.102041
0.632653	0.102041
0.653061	0.102041
0.673469	0.102041
0.693878	0.102041
0.714286	0.102041
0.734694	0.102041
0.755102	0.102041
0.77551	0.102041
0.795918	0.102041
0.816327	0.102041
0.836735	0.102041
0.857143	0.102041
0.877551	0.102041
0.897959	0.102041
0.918367	0.102041
0.938776	0.102041
0.959184	0.102041
0.979592	0.102041
1	0.102041
0	0.122449
0.0204082	0.122449
0.0408163	0.122449
0.0612245	0.122449
0.0816327	0.122449
0.102041	0.122449
0.122449	0.122449
0.142857	0.122449
0.163265	0.122449
0.183673	0.122449
0.204082	0.122449
0.22449	0.122449
0.244898	0.122449
0.265306	0.122449
0.285714	0.122449
0.306122	0.122449
0.326531	0.122449
0.346939	0.122449
0.367347	0.122449
0.387755	0.122449
0.408163	0.122449
0.428571	0.122449
0.44898	0.122449
0.469388	0.122449
0.489796	0.122449
0.510204	0.122449
0.530612	0.122449
0.55102	0.122449
0.571429	0.122449
0.591837	0.122449
0.612245	0.122449
0.632653	0.122449
0.653061	0.122449
0.673469	0.122449
0.693878	0.122449
0.714286	0.122449
0.734694	0.122449
0.755102	0.122449
0.77551	0.122449
0.795918	0.122449
0.816327	0.122449
0.836735	0.122449
0.857143	0.122449
0.877551	0.122449
0.897959	0.122449
0.918367	0.122449
0.938776	0.122449
0.959184	0.122449
0.979592	0.122449
1	0.122449
0	0.142857
0.0204082	0.142857
0.0408163	0.142857
0.0612245	0.142857
0.0816327	0.142857
0.102041	0.142857
0.122449	0.142857
0.142857	0.142857
0.163265	0.142857
0.183673	0.142857
0.204082	0.142857
0.22449	0.142857
0.244898	0.142857
0.265306	0.142857
0.285714	0.142857
0.306122	0.142857
0.326531	0.142857
0.346939	0.142857
0.367347	0.142857
0.387755	0.142857
0.408163	0.142857
0.428571	0.142857
0.44898	0.142857
0.469388	0.142857
0.489796	0.142857
0.510204	0.142857
0.530612	0.142857
0.55102	0.142857
0.571429	0.142857
0.591837	0.142857
0.612245	0.142857
0.632653	0.142857
0.653061	0.142857
0.673469	0.142857
0.693878	0.142857
0.714286	0.142857
0.734694	0.142857
0.755102	0.142857
0.77551	0.142857
0.795918	0.142857
0.816327	0.142857
0.836735	0.142857
0.857143	0.142857
0.877551	0.142857
0.897959	0.142857
0.918367	0.142857
0.938776	0.142857
0.959184	0.142857
0.979592	0.142857
1	0.142857
0	0.163265
0.0204082	0.163265
0.0408163	0.163265
0.0612245	0.163265
0.0816327	0.163265
0.102041	0.163265
0.122449	0.163265
0.142857	0.163265
0.163265	0.163265
0.183673	0.163265
0.204082	0.163265
0.22449	0.163265
0.244898	0.163265
0.265306	0.163265
0.285714	0.163265
0.306122	0.163265
0.326531	0.163265
0.346939	0.163265
0.367347	0.163265
0.387755	0.163265
0.408163	0.163265
0.428571	0.163265
0.44898	0.163265
0.469388	0.163265
0.489796	0.163265
0.510204	0.163265
0.530612	0.163265
0.55102	0.163265
0.571429	0.163265
0.591837	0.163265
0.612245	0.163265
0.632653	0.163265
0.653061	0.163265
0.673469	0.163265
0.693878	0.163265
0.714286	0.163265
0.734694	0.163265
0.755102	0.163265
0.77551	0.163265
0.795918	0.163265
0.816327	0.163265
0.836735	0.163265
0.857143	0.163265
0.877551	0.163265
0.897959	0.163265
0.918367	0.163265
0.938776	0.163265
0.959184	0.163265
0.979592	0.163265
1	0.163265
0	0.183673
0.0204082	0.183673
0.0408163	0.183673
0.0612245	0.183673
0.0816327	0.183673
0.102041	0.183673
0.122449	0.183673
0.142857	0.183673
0.163265	0.183673
0.183673	0.183673
0.204082	0.183673
0.22449	0.183673
0.244898	0.183673
0.265306	0.183673
0.285714	0.183673
0.306122	0.183673
0.326531	0.183673
0.346939	0.183673
0.367347	0.183673
0.387755	0.183673
0.408163	0.183673
0.428571	0.183673
0.44898	0.183673
0.469388	0.183673
0.489796	0.183673
0.510204	0.183673
0.530612	0.183673
0.55102	0.183673
0.571429	0.183673
0.591837	0.183673
0.612245	0.183673
0.632653	0.183673
0.653061	0.183673
0.673469	0.183673
0.693878	0.183673
0.714286	0.183673
0.734694	0.183673
0.755102	0.183673
0.77551	0.183673
0.795918	0.183673
0.816327	0.183673
0.836735	0.183673
0.857143	0.183673
0.877551	0.183673
0.897959	0.183673
0.918367	0.183673
0.938776	0.183673
0.959184	0.183673
0.979592	0.183673
1	0.183673
0	0.204082
0.0204082	0.204082
0.0408163	0.204082
0.0612245	0.204082
0.0816327	0.204082
0.102041	0.204082
0.122449	0.204082
0.142857	0.204082
0.163265	0.204082
0.183673	0.204082
0.204082	0.204082
0.22449	0.204082
0.244898	0.204082
0.265306	0.204082
0.285714	0.204082
0.306122	0.204082
0.326531	0.204082
0.346939	0.204082
0.367347	0.204082
0.387755	0.204082
0.408163	0.204082
0.428571	0.204082
0.44898	0.204082
0.469388	0.204082
0.489796	0.204082
0.510204	0.204082
0.530612	0.204082
0.55102	0.204082
0.571429	0.204082
0.591837	0.204082
0.612245	0.204082
0.632653	0.204082
0.653061	0.204082
0.673469	0.204082
0.693878	0.204082
0.714286	0.204082
0.734694	0.204082
0.755102	0.204082
0.77551	0.204082
0.795918	0.204082
0.816327	0.204082
0.836735	0.204082
0.857143	0.204082
0.877551	0.204082
0.897959	0.204082
0.918367	0.204082
0.938776	0.204082
0.959184	0.204082
0.979592	0.204082
1	0.204082
0	0.22449
0.0204082	0.22449
0.0408163	0.22449
0.0612245	0.22449
0.0816327	0.22449
0.102041	0.22449
0.122449	0.22449
0.142857	0.22449
0.163265	0.22449
0.183673	0.22449
0.204082	0.22449
0.22449	0.22449
0.244898	0.22449
0.265306	0.22449
0.285714	0.22449
0.306122	0.22449
0.326531	0.22449
0.346939	0.22449
0.367347	0.22449
0.387755	0.22449
0.408163	0.22449
0.428571	0.22449
0.44898	0.22449
0.469388	0.22449
0.489796	0.22449
0.510204	0.22449
0.530612	0.22449
0.55102	0.22449
0.571429	0.22449
0.591837	0.22449
0.612245	0.22449
0.632653	0.22449
0.653061	0.22449
0.673469	0.22449
0.693878	0.22449
0.714286	0.22449
0.734694	0.22449
0.755102	0.22449
0.77551	0.22449
0.795918	0.22449
0.816327	0.22449
0.836735	0.22449
0.857143	0.22449
0.877551	0.22449
0.897959	0.22449
0.918367	0.22449
0.938776	0.22449
0.959184	0.22449
0.979592	0.22449
1	0.22449
0	0.244898
0.0204082	0.244898
0.0408163	0.244898
0.0612245	0.244898
0.0816327	0.244898
0.102041	0.244898
0.122449	0.244898
0.142857	0.244898
0.163265	0.244898
0.183673	0.244898
0.204082	0.244898
0.22449	0.244898
0.244898	0.244898
0.265306	0.244898
0.285714	0.244898
0.306122	0.244898
0.326531	0.244898
0.346939	0.244898
0.367347	0.244898
0.387755	0.244898
0.408163	0.244898
0.428571	0.244898
0.44898	0.244898
0.469388	0.244898
0.489796	0.244898
0.510204	0.244898
0.530612	0.244898
0.55102	0.244898
0.571429	0.244898
0.591837	0.244898
0.612245	0.244898
0.632653	0.244898
0.653061	0.244898
0.673469	0.244898
0.693878	0.244898
0.714286	0.244898
0.734694	0.244898
0.755102	0.244898
0.77551	0.244898
0.795918	0.244898
0.816327	0.244898
0.836735	0.244898
0.857143	0.244898
0.877551	0.244898
0.897959	0.244898
0.918367	0.244898
0.938776	0.244898
0.959184	0.244898
0.979592	0.244898
1	0.244898
0	0.265306
0.0204082	0.265306
0.0408163	0.265306
0.0612245	0.265306
0.0816327	0.265306
0.102041	0.265306
0.122449	0.265306
0.142857	0.265306
0.163265	0.265306
0.183673	0.265306
0.204082	0.265306
0.22449	0.265306
0.244898	0.265306
0.265306	0.265306
0.285714	0.265306
0.306122	0.265306
0.326531	0.265306
0.346939	0.265306
0.367347	0.265306
0.387755	0.265306
0.408163	0.265306
0.428571	0.265306
0.44898	0.265306
0.469388	0.265306
0.489796	0.265306
0.510204	0.265306
0.530612	0.265306
0.55102	0.265306
0.571429	0.265306
0.591837	0.265306
0.612245	0.265306
0.632653	0.265306
0.653061	0.265306
0.673469	0.265306
0.693878	0.265306
0.714286	0.265306
0.734694	0.265306
0.755102	0.265306
0.77551	0.265306
0.795918	0.265306
0.816327	0.265306
0.836735	0.265306
0.857143	0.265306
0.877551	0.265306
0.897959	0.265306
0.918367	0.265306
0.938776	0.265306
0.959184	0.265306
0.979592	0.265306
1	0.265306
0	0.285714
0.0204082	0.285714
0.0408163	0.285714
0.0612245	0.285714
0.0816327	0.285714
0.102041	0.285714
0.122449	0.285714
0.142857	0.285714
0.163265	0.285714
0.183673	0.285714
0.204082	0.285714
0.22449	0.285714
0.244898	0.285714
0.265306	0.285714
0.285714	0.285714
0.306122	0.285714
0.326531	0.285714
0.346939	0.285714
0.367347	0.285714
0.387755	0.285714
0.408163	0.285714
0.428571	0.285714
0.44898	0.285714
0.469388	0.285714
0.489796	0.285714
0.510204	0.285714
0.530612	0.285714
0.55102	0.285714
0.571429	0.285714
0.591837	0.285714
0.612245	0.285714
0.632653	0.285714
0.653061	0.285714
0.673469	0.285714
0.693878	0.285714
0.714286	0.285714
0.734694	0.285714
0.755102	0.285714
0.77551	0.285714
0.795918	0.285714
0.816327	0.285714
0.836735	0.285714
0.857143	0.285714
0.877551	0.285714
0.897959	0.285714
0.918367	0.285714
0.938776	0.285714
0.959184	0.285714
0.979592	0.285714
1	0.285714
0	0.306122
0.0204082	0.306122
0.0408163	0.306122
0.0612245	0.306122
0.0816327	0.306122
0.102041	0.306122
0.122449	0.306122
0.142857	0.306122
0.163265	0.306122
0.183673	0.306122
0.204082	0.306122
0.22449	0.306122
0.244898	0.306122
0.265306	0.306122
0.285714	0.306122
0.306122	0.306122
0.326531	0.306122
0.346939	0.306122
0.367347	0.306122
0.387755	0.306122
0.408163	0.306122
0.428571	0.306122
0.44898	0.306122
0.469388	0.306122
0.489796	0.306122
0.510204	0.306122
0.530612	0.306122
0.55102	0.306122
0.571429	0.306122
0.591837	0.306122
0.612245	0.306122
0.632653	0.306122
0.653061	0.306122
0.673469	0.306122
0.693878	0.306122
0.714286	0.306122
0.734694	0.306122
0.755102	0.306122
0.77551	0.306122
0.795918	0.306122
0.816327	0.306122
0.836735	0.306122
0.857143	0.306122
0.877551	0.306122
0.897959	0.306122
0.918367	0.306122
0.938776	0.306122
0.959184	0.306122
0.979592	0.306122
1	0.306122
0	0.326531
0.0204082	0.326531
0.0408163	0.326531
0.0612245	0.326531
0.0816327	0.326531
0.102041	0.326531
0.122449	0.326531
0.142857	0.326531
0.163265	0.326531
0.183673	0.326531
0.204082	0.326531
0.22449	0.326531
0.244898	0.326531
0.265306	0.326531
0.285714	0.326531
0.306122	0.326531
0.326531	0.326531
0.346939	0.326531
0.367347	0.326531
0.387755	0.326531
0.408163	0.326531
0.428571	0.326531
0.44898	0.326531
0.469388	0.326531
0.489796	0.326531
0.510204	0.326531
0.530612	0.326531
0.55102	0.326531
0.571429	0.326531
0.591837	0.326531
0.612245	0.326531
0.632653	0.326531
0.653061	0.326531
0.673469	0.326531
0.693878	0.326531
0.714286	0.326531
0.734694	0.326531
0.755102	0.326531
0.77551	0.326531
0.795918	0.326531
0.816327	0.326531
0.836735	0.326531
0.857143	0.326531
0.877551	0.326531
0.897959	0.326531
0.918367	0.326531
0.938776	0.326531
0.959184	0.326531
0.979592	0.326531
1	0.326531
0	0.346939
0.0204082	0.346939
0.0408163	0.346939
0.0612245	0.346939
0.0816327	0.346939
0.102041	0.346939
0.122449	0.346939
0.142857	0.346939
0.163265	0.346939
0.183673	0.346939
0.204082	0.346939
0.22449	0.346939
0.244898	0.346939
0.265306	0.346939
0.285714	0.346939
0.306122	0.346939
0.326531	0.346939
0.346939	0.346939
0.367347	0.346939
0.387755	0.346939
0.408163	0.346939
0.428571	0.346939
0.44898	0.346939
0.469388	0.346939
0.489796	0.346939
0.510204	0.346939
0.530612	0.346939
0.55102	0.346939
0.571429	0.346939
0.591837	0.346939
0.612245	0.346939
0.632653	0.346939
0.653061	0.346939
0.673469	0.346939
0.693878	0.346939
0.714286	0.346939
0.734694	0.346939
0.755102	0.346939
0.77551	0.346939
0.795918	0.346939
0.816327	0.346939
0.836735	0.346939
0.857143	0.346939
0.877551	0.346939
0.897959	0.346939
0.918367	0.346939
0.938776	0.346939
0.959184	0.346939
0.979592	0.346939
1	0.346939
0	0.367347
0.0204082	0.367347
0.0408163	0.367347
0.0612245	0.367347
0.0816327	0.367347
0.102041	0.367347
0.122449	0.367347
0.142857	0.367347
0.163265	0.367347
0.183673	0.367347
0.204082	0.367347
0.22449	0.367347
0.244898	0.367347
0.265306	0.367347
0.285714	0.367347
0.306122	0.367347
0.326531	0.367347
0.346939	0.367347
0.367347	0.367347
0.387755	0.367347
0.408163	0.367347
0.428571	0.367347
0.44898	0.367347
0.469388	0.367347
0.489796	0.367347
0.510204	0.367347
0.530612	0.367347
0.55102	0.367347
0.571429	0.367347
0.591837	0.367347
0.612245	0.367347
0.632653	0.367347
0.653061	0.367347
0.673469	0.367347
0.693878	0.367347
0.714286	0.367347
0.734694	0.367347
0.755102	0.367347
0.77551	0.367347
0.795918	0.367347
0.816327	0.367347
0.836735	0.367347
0.857143	0.367347
0.877551	0.367347
0.897959	0.367347
0.918367	0.367347
0.938776	0.367347
0.959184	0.367347
0.979592	0.367347
1	0.367347
0	0.387755
0.0204082	0.387755
0.0408163	0.387755
0.0612245	0.387755
0.0816327	0.387755
0.102041	0.387755
0.122449	0.387755
0.142857	0.387755
0.163265	0.387755
0.183673	0.387755
0.204082	0.387755
0.22449	0.387755
0.244898	0.387755
0.265306	0.387755
0.285714	0.387755
0.306122	0.387755
0.326531	0.387755
0.346939	0.387755
0.367347	0.387755
0.387755	0.387755
0.408163	0.387755
0.428571	0.387755
0.44898	0.387755
0.469388	0.387755
0.489796	0.387755
0.510204	0.387755
0.530612	0.387755
0.55102	0.387755
0.571429	0.387755
0.591837	0.387755
0.612245	0.387755
0.632653	0.387755
0.653061	0.387755
0.673469	0.387755
0.693878	0.387755
0.714286	0.387755
0.734694	0.387755
0.755102	0.387755
0.77551	0.387755
0.795918	0.387755
0.816327	0.387755
0.836735	0.387755
0.857143	0.387755
0.877551	0.387755
0.897959	0.387755
0.918367	0.387755
0.938776	0.387755
0.959184	0.387755
0.979592	0.387755
1	0.387755
0	0.408163
0.0204082	0.408163
0.0408163	0.408163
0.0612245	0.408163
0.0816327	0.408163
0.102041	0.408163
0.122449	0.408163
0.142857	0.408163
0.163265	0.408163
0.183673	0.408163
0.204082	0.408163
0.22449	0.408163
0.244898	0.408163
0.265306	0.408163
0.285714	0.408163
0.306122	0.408163
0.326531	0.408163
0.346939	0.408163
0.367347	0.408163
0.387755	0.408163
0.408163	0.408163
0.428571	0.408163
0.44898	0.408163
0.469388	0.408163
0.489796	0.408163
0.510204	0.408163
0.530612	0.408163
0.55102	0.408163
0.571429	0.408163
0.591837	0.408163
0.612245	0.408163
0.632653	0.408163
0.653061	0.408163
0.673469	0.408163
0.693878	0.408163
0.714286	0.408163
0.734694	0.408163
0.755102	0.408163
0.77551	0.408163
0.795918	0.408163
0.816327	0.408163
0.836735	0.408163
0.857143	0.408163
0.877551	0.408163
0.897959	0.408163
0.918367	0.408163
0.938776	0.408163
0.959184	0.408163
0.979592	0.408163
1	0.408163
0	0.428571
0.0204082	0.428571
0.0408163	0.428571
0.0612245	0.428571
0.0816327	0.428571
0.102041	0.428571
0.122449	0.428571
0.142857	0.428571
0.163265	0.428571
0.183673	0.428571
0.204082	0.428571
0.22449	0.428571
0.244898	0.428571
0.265306	0.428571
0.285714	0.428571
0.306122	0.428571
0.326531	0.428571
0.346939	0.428571
0.367347	0.428571
0.387755	0.428571
0.408163	0.428571
0.428571	0.428571
0.44898	0.428571
0.469388	0.428571
0.489796	0.428571
0.510204	0.428571
0.530612	0.428571
0.55102	0.428571
0.571429	0.428571
0.591837	0.428571
0.612245	0.428571
0.632653	0.428571
0.653061	0.428571
0.673469	0.428571
0.693878	0.428571
0.714286	0.428571
0.734694	0.428571
0.755102	0.428571
0.77551	0.428571
0.795918	0.428571
0.816327	0.428571
0.836735	0.428571
0.857143	0.428571
0.877551	0.428571
0.897959	0.428571
0.918367	0.428571
0.938776	0.428571
0.959184	0.428571
0.979592	0.428571
1	0.428571
0	0.44898
0.0204082	0.44898
0.0408163	0.44898
0.0612245	0.44898
0.0816327	0.44898
0.102041	0.44898
0.122449	0.44898
0.142857	0.44898
0.163265	0.44898
0.183673	0.44898
0.204082	0.44898
0.22449	0.44898
0.244898	0.44898
0.265306	0.44898
0.285714	0.44898
0.306122	0.44898
0.326531	0.44898
0.346939	0.44898
0.367347	0.44898
0.387755	0.44898
0.408163	0.44898
0.428571	0.44898
0.44898	0.44898
0.469388	0.44898
0.489796	0.44898
0.510204	0.44898
0.530612	0.44898
0.55102	0.44898
0.571429	0.44898
0.591837	0.44898
0.612245	0.44898
0.632653	0.44898
0.653061	0.44898
0.673469	0.44898
0.693878	0.44898
0.714286	0.44898
0.734694	0.44898
0.755102	0.44898
0.77551	0.44898
0.795918	0.44898
0.816327	0.44898
0.836735	0.44898
0.857143	0.44898
0.877551	0.44898
0.897959	0.44898
0.918367	0.44898
0.938776	0.44898
0.959184	0.44898
0.979592	0.44898
1	0.44898
0	0.469388
0.0204082	0.469388
0.0408163	0.469388
0.0612245	0.469388
0.0816327	0.469388
0.102041	0.469388
0.122449	0.469388
0.142857	0.469388
0.163265	0.469388
0.183673	0.469388
0.204082	0.469388
0.22449	0.469388
0.244898	0.469388
0.265306	0.469388
0.285714	0.469388
0.306122	0.469388
0.326531	0.469388
0.346939	0.469388
0.367347	0.469388
0.387755	0.469388
0.408163	0.469388
0.428571	0.469388
0.44898	0.469388
0.469388	0.469388
0.489796	0.469388
0.510204	0.469388
0.530612	0.469388
0.55102	0.469388
0.571429	0.469388
0.591837	0.469388
0.612245	0.469388
0.632653	0.469388
0.653061	0.469388
0.673469	0.469388
0.693878	0.469388
0.714286	0.469388
0.734694	0.469388
0.755102	0.469388
0.77551	0.469388
0.795918	0.469388
0.816327	0.469388
0.836735	0.469388
0.857143	0.469388
0.877551	0.469388
0.897959	0.469388
0.918367	0.469388
0.938776	0.469388
0.959184	0.469388
0.979592	0.469388
1	0.469388
0	0.489796
0.0204082	0.489796
0.0408163	0.489796
0.0612245	0.489796
0.0816327	0.489796
0.102041	0.489796
0.122449	0.489796
0.142857	0.489796
0.163265	0.489796
0.183673	0.489796
0.204082	0.489796
0.22449	0.489796
0.244898	0.489796
0.265306	0.489796
0.285714	0.489796
0.306122	0.489796
0.326531	0.489796
0.346939	0.489796
0.367347	0.489796
0.387755	0.489796
0.408163	0.489796
0.428571	0.489796
0.44898	0.489796
0.469388	0.489796
0.489796	0.489796
0.510204	0.489796
0.530612	0.489796
0.55102	0.489796
0.571429	0.489796
0.591837	0.489796
0.612245	0.489796
0.632653	0.489796
0.653061	0.489796
0.673469	0.489796
0.693878	0.489796
0.714286	0.489796
0.734694	0.489796
0.755102	0.489796
0.77551	0.489796
0.795918	0.489796
0.816327	0.489796
0.836735	0.489796
0.857143	0.489796
0.877551	0.489796
0.897959	0.489796
0.918367	0.489796
0.938776	0.489796
0.959184	0.489796
0.979592	0.489796
1	0.489796
0	0.510204
0.0204082	0.510204
0.0408163	0.510204
0.0612245	0.510204
0.0816327	0.510204
0.102041	0.510204
0.122449	0.510204
0.142857	0.510204
0.163265	0.510204
0.183673	0.510204
0.204082	0.510204
0.22449	0.510204
0.244898	0.510204
0.265306	0.510204
0.285714	0.510204
0.306122	0.510204
0.326531	0.510204
0.346939	0.510204
0.367347	0.510204
0.387755	0.510204
0.408163	0.510204
0.428571	0.510204
0.44898	0.510204
0.469388	0.510204
0.489796	0.510204
0.510204	0.510204
0.530612	0.510204
0.55102	0.510204
0.571429	0.510204
0.591837	0.510204
0.612245	0.510204
0.632653	0.510204
0.653061	0.510204
0.673469	0.510204
0.693878	0.510204
0.714286	0.510204
0.734694	0.510204
0.755102	0.510204
0.77551	0.510204
0.795918	0.510204
0.816327	0.510204
0.836735	0.510204
0.857143	0.510204
0.877551	0.510204
0.897959	0.510204
0.918367	0.510204
0.938776	0.510204
0.959184	0.510204
0.979592	0.510204
1	0.510204
0	0.530612
0.0204082	0.530612
0.0408163	0.530612
0.0612245	0.530612
0.0816327	0.530612
0.102041	0.530612
0.122449	0.530612
0.142857	0.530612
0.163265	0.530612
0.183673	0.530612
0.204082	0.530612
0.22449	0.530612
0.244898	0.530612
0.265306	0.530612
0.285714	0.530612
0.306122	0.530612
0.326531	0.530612
0.346939	0.530612
0.367347	0.530612
0.387755	0.530612
0.408163	0.530612
0.428571	0.530612
0.44898	0.530612
0.469388	0.530612
0.489796	0.530612
0.510204	0.530612
0.530612	0.530612
0.55102	0.530612
0.571429	0.530612
0.591837	0.530612
0.612245	0.530612
0.632653	0.530612
0.653061	0.530612
0.673469	0.530612
0.693878	0.530612
0.714286	0.530612
0.734694	0.530612
0.755102	0.530612
0.77551	0.530612
0.795918	0.530612
0.816327	0.530612
0.836735	0.530612
0.857143	0.530612
0.877551	0.530612
0.897959	0.530612
0.918367	0.530612
0.938776	0.530612
0.959184	0.530612
0.979592	0.530612
1	0.530612
0	0.55102
0.0204082	0.55102
0.0408163	0.55102
0.0612245	0.55102
0.0816327	0.55102
0.102041	0.55102
0.122449	0.55102
0.142857	0.55102
0.163265	0.55102
0.183673	0.55102
0.204082	0.55102
0.22449	0.55102
0.244898	0.55102
0.265306	0.55102
0.285714	0.55102
0.306122	0.55102
0.326531	0.55102
0.346939	0.55102
0.367347	0.55102
0.387755	0.55102
0.408163	0.55102
0.428571	0.55102
0.44898	0.55102
0.469388	0.55102
0.489796	0.55102
0.510204	0.55102
0.530612	0.55102
0.55102	0.55102
0.571429	0.55102
0.591837	0.55102
0.612245	0.55102
0.632653	0.55102
0.653061	0.55102
0.673469	0.55102
0.693878	0.55102
0.714286	0.55102
0.734694	0.55102
0.755102	0.55102
0.77551	0.55102
0.795918	0.55102
0.816327	0.55102
0.836735	0.55102
0.857143	0.55102
0.877551	0.55102
0.897959	0.55102
0.918367	0.55102
0.938776	0.55102
0.959184	0.55102
0.979592	0.55102
1	0.55102
0	0.571429
0.0204082	0.571429
0.0408163	0.571429
0.0612245	0.571429
0.0816327	0.571429
0.102041	0.571429
0.122449	0.571429
0.142857	0.571429
0.163265	0.571429
0.183673	0.571429
0.204082	0.571429
0.22449	0.571429
0.244898	0.571429
0.265306	0.571429
0.285714	0.571429
0.306122	0.571429
0.326531	0.571429
0.346939	0.571429
0.367347	0.571429
0.387755	0.571429
0.408163	0.571429
0.428571	0.571429
0.44898	0.571429
0.469388	0.571429
0.489796	0.571429
0.510204	0.571429
0.530612	0.571429
0.55102	0.571429
0.571429	0.571429
0.591837	0.571429
0.612245	0.571429
0.632653	0.571429
0.653061	0.571429
0.673469	0.571429
0.693878	0.571429
0.714286	0.571429
0.734694	0.571429
0.755102	0.571429
0.77551	0.571429
0.795918	0.571429
0.816327	0.571429
0.836735	0.571429
0.857143	0.571429
0.877551	0.571429
0.897959	0.571429
0.918367	0.571429
0.938776	0.571429
0.959184	0.571429
0.979592	0.571429
1	0.571429
0	0.591837
0.0204082	0.591837
0.0408163	0.591837
0.0612245	0.591837
0.0816327	0.591837
0.102041	0.591837
0.122449	0.591837
0.142857	0.591837
0.163265	0.591837
0.183673	0.591837
0.204082	0.591837
0.22449	0.591837
0.244898	0.591837
0.265306	0.591837
0.285714	0.591837
0.306122	0.591837
0.326531	0.591837
0.346939	0.591837
0.367347	0.591837
0.387755	0.591837
0.408163	0.591837
0.428571	0.591837
0.44898	0.591837
0.469388	0.591837
0.489796	0.591837
0.510204	0.591837
0.530612	0.591837
0.55102	0.591837
0.571429	0.591837
0.591837	0.591837
0.612245	0.591837
0.632653	0.591837
0.653061	0.591837
0.673469	0.591837
0.693878	0.591837
0.714286	0.591837
0.734694	0.591837
0.755102	0.591837
0.77551	0.591837
0.795918	0.591837
0.816327	0.591837
0.836735	0.591837
0.857143	0.591837
0.877551	0.591837
0.897959	0.591837
0.918367	0.591837
0.938776	0.591837
0.959184	0.591837
0.979592	0.591837
1	0.591837
0	0.612245
0.0204082	0.612245
0.0408163	0.612245
0.0612245	0.612245
0.0816327	0.612245
0.102041	0.612245
0.122449	0.612245
0.142857	0.612245
0.163265	0.612245
0.183673	0.612245
0.204082	0.612245
0.22449	0.612245
0.244898	0.612245
0.265306	0.612245
0.285714	0.612245
0.306122	0.612245
0.326531	0.612245
0.346939	0.612245
0.367347	0.612245
0.387755	0.612245
0.408163	0.612245
0.428571	0.612245
0.44898	0.612245
0.469388	0.612245
0.489796	0.612245
0.510204	0.612245
0.530612	0.612245
0.55102	0.612245
0.571429	0.612245
0.591837	0.612245
0.612245	0.612245
0.632653	0.612245
0.653061	0.612245
0.673469	0.612245
0.693878	0.612245
0.714286	0.612245
0.734694	0.612245
0.755102	0.612245
0.77551	0.612245
0.795918	0.612245
0.816327	0.612245
0.836735	0.612245
0.857143	0.612245
0.877551	0.612245
0.897959	0.612245
0.918367	0.612245
0.938776	0.612245
0.959184	0.612245
0.979592	0.612245
1	0.612245
0	0.632653
0.0204082	0.632653
0.0408163	0.632653
0.0612245	0.632653
0.0816327	0.632653
0.102041	0.632653
0.122449	0.632653
0.142857	0.632653
0.163265	0.632653
0.183673	0.632653
0.204082	0.632653
0.22449	0.632653
0.244898	0.632653
0.265306	0.632653
0.285714	0.632653
0.306122	0.632653
0.326531	0.632653
0.346939	0.632653
0.367347	0.632653
0.387755	0.632653
0.408163	0.632653
0.428571	0.632653
0.44898	0.632653
0.469388	0.632653
0.489796	0.632653
0.510204	0.632653
0.530612	0.632653
0.55102	0.632653
0.571429	0.632653
0.591837	0.632653
0.612245	0.632653
0.632653	0.632653
0.653061	0.632653
0.673469	0.632653
0.693878	0.632653
0.714286	0.632653
0.734694	0.632653
0.755102	0.632653
0.77551	0.632653
0.795918	0.632653
0.816327	0.632653
0.836735	0.632653
0.857143	0.632653
0.877551	0.632653
0.897959	0.632653
0.918367	0.632653
0.938776	0.632653
0.959184	0.632653
0.979592	0.632653
1	0.632653
0	0.653061
0.0204082	0.653061
0.0408163	0.653061
0.0612245	0.653061
0.0816327	0.653061
0.102041	0.653061
0.122449	0.653061
0.142857	0.653061
0.163265	0.653061
0.183673	0.653061
0.204082	0.653061
0.22449	0.653061
0.244898	0.653061
0.265306	0.653061
0.285714	0.653061
0.306122	0.653061
0.326531	0.653061
0.346939	0.653061
0.367347	0.653061
0.387755	0.653061
0.408163	0.653061
0.428571	0.653061
0.44898	0.653061
0.469388	0.653061
0.489796	0.653061
0.510204	0.653061
0.530612	0.653061
0.55102	0.653061
0.571429	0.653061
0.591837	0.653061
0.612245	0.653061
0.632653	0.653061
0.653061	0.653061
0.673469	0.653061
0.693878	0.653061
0.714286	0.653061
0.734694	0.653061
0.755102	0.653061
0.77551	0.653061
0.795918	0.653061
0.816327	0.653061
0.836735	0.653061
0.857143	0.653061
0.877551	0.653061
0.897959	0.653061
0.918367	0.653061
0.938776	0.653061
0.959184	0.653061
0.979592	0.653061
1	0.653061
0	0.673469
0.0204082	0.673469
0.0408163	0.673469
0.0612245	0.673469
0.0816327	0.673469
0.102041	0.673469
0.122449	0.673469
0.142857	0.673469
0.163265	0.673469
0.183673	0.673469
0.204082	0.673469
0.22449	0.673469
0.244898	0.673469
0.265306	0.673469
0.285714	0.673469
0.306122	0.673469
0.326531	0.673469
0.346939	0.673469
0.367347	0.673469
0.387755	0.673469
0.408163	0.673469
0.428571	0.673469
0.44898	0.673469
0.469388	0.673469
0.489796	0.673469
0.510204	0.673469
0.530612	0.673469
0.55102	0.673469
0.571429	0.673469
0.591837	0.673469
0.612245	0.673469
0.632653	0.673469
0.653061	0.673469
0.673469	0.673469
0.693878	0.673469
0.714286	0.673469
0.734694	0.673469
0.755102	0.673469
0.77551	0.673469
0.795918	0.673469
0.816327	0.673469
0.836735	0.673469
0.857143	0.673469
0.877551	0.673469
0.897959	0.673469
0.918367	0.673469
0.938776	0.673469
0.959184	0.673469
0.979592	0.673469
1	0.673469
0	0.693878
0.0204082	0.693878
0.0408163	0.693878
0.0612245	0.693878
0.0816327	0.693878
0.102041	0.693878
0.122449	0.693878